<?xml version="1.0"?>
<VTKFile type="UnstructuredGrid"  version="0.1"  >
<UnstructuredGrid>
<Piece  NumberOfPoints="571" NumberOfCells="2204">
<Points>
<DataArray  type="Float64"  NumberOfComponents="3"  format="ascii">0 0.4557658422360288 0.2037239481916731  0.215342302085561 0.4088165324138145 0.276607389891164  0.1898111423118776 0.4804099814266372 0.120481987618956  0.1488218331026943 0.5456085533310675 0.3580349126526996  0 -0.3584022067626158 -0.34713844364978  0 -0.4343749685821028 -0.5981026889621334  0 -0.2183570664703646 -0.4494716729159423  0.2262183546861321 -0.2890645186499676 -0.3992423335076322  0.8236654683860651 -0.3854091937706139 0.1520784617307017  0.9611575557215211 -0.3381064906313395 0.1705616282461981  1.101237692407842 -0.5682744000940003 0.1641358915984834  0.8808535886157749 -0.4013915609715027 0.01807349879338826  0.2768592740765526 0.6713354132414016 0.2942300696330516  0 0.7174485391010063 0.1810648686359916  0.1358245596864188 0.7170315960464521 0.3854999039085954  0.1805154614533415 0.8310021267322617 0.1686271154597134  0.2260044654083829 0.5284200423715826 0.5113804949326196  0 0.6247318086192194 0.7784334564044499  0.2234432804039685 0.5510573463749909 0.8248530136698899  0.2051937258140014 0.6861590858235175 0.7166328779599186  1.436121479967118 -0.1618100638832992 0.3933467488268004  1.607502195396375 -0.1748143324203481 0.2469448255435848  1.541913529235868 -0.4300925108691208 0.4574853456310987  1.346433659029038 -0.4270520351658764 0.2586315063847239  1.542556911883307 -0.3473583885216562 0.1166196836262704  1.396607295547186 -0.1386793780546898 0.1050203081845187  1.68644067764384 0.09489426693876185 -0.2106786860728978  1.481704577030881 0.04548157799178949 -0.0120835870758516  1.738705877114763 -0.03194054357726368 -0.02005955530575017  1.674236160379273 0.2085240449466953 0.0274629254215289  0.8037946419929682 -0.3370944910749437 -0.2466343060504287  0.9362642156920464 -0.3704091732671893 -0.1147956977516422  0.9857831417878248 -0.5299008476462513 -0.3433600658162904  1.045221004397578 -0.3025921429816227 -0.187001915832861  0.5194649326683753 0.03965186697137328 0.7329698387380782  0.6793945283207881 0.2535408389821024 0.9037481344226557  0.7164077726675464 0.05761331572313 0.9294704380642947  0.7957068750075035 0.1527677362072418 0.6682504641370516  1.627668761131291 -0.2749473348912957 0.5032979280239953  1.441039914988583 -0.3039695720636669 0.6201421578283288  0 -0.5157481316615737 0.5311596756682169  0.1752388498574636 -0.4274470340138514 0.6964420531097035  0.2745817512199675 -0.586235345398221 0.4466848625012881  0.2123538086145217 -0.3435876563839098 0.3547882322077363  0.6886953441565045 -0.8994645218821888 0.2614554791402248  0.7925803761983674 -0.7358913891656684 0.5443993262429085  0.9683407667895547 -0.7545578665694681 0.4378949691425725  0.7829392834966107 -0.6369054036577044 0.265784144462074  0.8049799187676107 0.5610888404572143 -0.3400918840523413  0.6955806663620081 0.829343331792612 -0.429140473648113  0.7577552661455027 0.6779093217819596 -0.1086323982351653  0.9092927595716991 0.8360853336671894 -0.2984444117297587  0.2598069211373117 -0.6627931504171131 -0.3175951070732924  0.1764099108743622 -0.8120348674137512 -0.1718130402549574  0.3997599759778838 -0.7545520996465095 -0.160404821653467  0.2226756839645508 -0.7073355731667365 -0.02210405772723709  0 0.3584022064076389 0.3471384433363549  0.156219818557485 0.3681990695396501 0.544612835542747  0 0.2183570659652789 0.4494716717761347  0.231673397548859 0.2888331680572713 0.3989257253052388  1.654861426338621 -0.2478449385455452 -0.06559739536694574  1.428350129602535 -0.1115590829296363 -0.09670693874748981  1.47153404734189 -0.05397042629357812 -0.03559554145352491  1.692529569909899 -0.1112403810512433 -0.2155045758308118  0.6043587999831042 -0.4258877923435302 -0.1637909996322506  0.6956465150978134 -0.4831009610867857 -0.4710971354434343  0.5544405621623107 -0.2427987236227395 -0.3955115419701227  0 -0.4802903493566127 0.1368959947787141  0 -0.7302700985569437 0.09286428021977672  0.1926808816194057 -0.6139415882032969 0.2542662684407305  0 -0.6648512623073015 0.3234225162635865  0.2468218893148968 -0.9514410968355673 -0.2772800963218767  0.2161236652421403 -0.9865572864454526 -0.112821630759336  0.7040807678965115 0.03144525423153868 -0.6784996553169467  0.6049865433828723 -0.09298800456506828 -0.9469011811091913  0.6771532227361217 0.1339387063677078 -0.9301296699811332  0.8211634938249786 -0.0614948596176802 -0.9069759893778435  1.036464561655427 0.07803635001225265 -0.8480026857180265  1.047382312232843 0.1449735934663914 -0.5834636095260999  0.847977007252553 0.2190842168098666 -0.6515780325598419  0.9673540972414912 -0.09218333403450402 -0.6314877750258698  0.1654630623866923 -0.7891482550794858 0.1754039241458947  0.8065091973842723 0.8996210807451531 -0.1516398615176273  0.9689115062321594 0.8697371324164864 -0.05737816468989729  0 -0.05224970938185564 0.7383018464539186  0 0.152057173948395 0.9883716984394171  0 -0.02181779437745626 0.9992217843736096  0.1480076500600712 -0.04226556988656546 0.8228748951508928  0.3570119558679766 -0.3875673443422485 0.6283811022673187  0.3032127927073427 -0.27609906509396 0.947385211707312  0.3710752335953543 -0.1597222693377068 0.7268486788309733  0.1596979455818125 -0.2274471135455735 0.7803051869954362  1.383661570440923 0.3500806804477891 -0.3732923251768873  1.466985613337009 0.1703829661173299 -0.3704672574792687  1.339191945049393 0.1603992931247615 -0.1392787093071194  1.218793485220007 0.1524777818547855 -0.2381940101844883  1.602030729744447 -0.5096923759111893 0.3039517603136516  0.2819554713663738 0.3978050956554593 0.9044496162677476  0.4858574754451384 0.2185511741074815 0.9441265533577465  0.3009349333273584 0.2245304454724337 0.9612324617992346  0.379728425704766 0.280606621983304 0.6665473761657372  1.444127185672022 0.1075723840985631 0.06057743607179902  1.378055437130003 0.08638063566135351 0.1627644389880674  1.533532002695516 0.2881113291306691 0.2226708993650882  1.356915764058502 0.1947065627274188 0.05292547050348874  0.9249051061462799 -0.02602338380190757 -0.3890518287049182  0.9512388581902265 -0.191188988513543 -0.3322379378462166  1.135906844855498 -0.1032642586232273 -0.3097927758696814  1.881364268925326 -0.140513086430453 0.3033057710900302  1.934322816827055 -0.05337530921901619 0.226075258562982  1.877213964533651 -0.2395345478348945 0.2224375002219985  1.735446578002003 -0.1851048010644701 0.1003449960561909  1.186577623012013 -0.6419807307222345 0.4790354508382345  1.033837735191197 -0.8226358658489163 0.2224324767312418  1.220110330933713 0.5579069237118678 -0.1384241073880815  1.202641783759364 0.7660089775647176 -0.2059219350323402  1.348204362088659 0.7291701336566525 -0.08553858199864187  1.373890877408544 0.643443481897465 -0.3295312840141351  0.8889403608854015 0.3440656474620377 0.202206313611441  0.7633070877744067 0.4829563714339042 0.4609914933946992  0.6074025488328552 0.3980824031539547 0.2202074157880716  0.8498411362142491 0.2538314141398708 0.3183972385314329  1.906971030501883 -0.02924262873585302 -0.2925304055025031  1.917841471920854 0.1280070835989337 -0.2332969757870052  1.977100064565325 0.03461277913397159 -0.1242052986087955  0.3803691808866855 -0.3355579543064399 0.3465621272107741  0.230692984353059 -0.2010076006014083 0.4497433381602904  0.64730757425909 0.3193924789905956 0.6430219874668933  0.5312493112787571 0.3869819773062052 0.88013158366127  0.1981178548262078 -0.08266711518446004 0.4878219796120337  0.1507883552693025 -0.06619623858581572 0.653824196075696  0.3173745720928878 -0.03479593819612045 0.486488455054065  0.2407519661948721 -0.2942799243084049 -0.6679877304763879  0.1447181131051986 -0.5563999954157572 -0.5926523225276602  0.2230025032730146 -0.5510695149780613 -0.8248711742736513  0.4209850149827287 -0.4440580800016051 -0.5525257008565216  0.1716153851630315 -0.6666872237464663 0.5373944942519072  0.2368004460370194 -0.5856959765217175 0.7985771930839038  0.1929790441535802 -0.7172143285528213 0.6867043074441012  0.3361270406401012 -0.7109442361065206 0.6808248927354941  1.231410932483969 -0.2849146919313793 0.4605665905528151  1.110789378543992 -0.5894825827383308 -0.1067217944497213  0.8408046771696551 0.3497636183210086 0.8330429381184914  1.142942431521951 -0.2180429942377705 -0.234249801634715  1.076847482432394 -0.3421567079452609 -0.5159050543339727  0 -0.4042503680362676 0.2927297205034136  0.9376478613173151 0.301269473405784 0.577571779432505  1.104332712259922 0.3987677063979381 0.5106339932066641  0.9831612809725235 0.5290948589007964 0.3884115874044889  1.178465479798848 0.6477217256402028 -0.4758816668598858  0.9929652204741933 0.4334281188487362 -0.4635541053406589  1.261911899573236 0.4897003834983976 -0.596028440710165  1.207759715786344 0.4238689013699606 -0.3198509399978258  0.1481472324300359 0.5739240544778232 -0.2790540507606966  0.2546555330241972 0.4419467201837363 -0.2146549363952016  0.2967718881738725 0.5745374608476215 -0.4594495357992309  0.2393835589042319 0.7062628630168708 -0.2503816715840821  0.2282246281134045 -0.1080099340663203 0.9865598892110472  0.4178442724260187 -0.1245374237060022 0.9684717349810656  0.3881404830163965 0.06411321972342053 0.9776678414861761  0 -0.9797478924171443 -0.1948604103628404  0.3426893074645813 -0.6305825071524406 -0.5053249099733295  0.5224124653367972 -0.6441468842677944 -0.3200369093567181  0.3978795981623498 -0.3978389693554893 -0.2691547580651357  0 0.4042503686430302 -0.2927297209337942  0.1715523702503297 0.4856012358052686 -0.4114946992370639  0.3285090128755508 0.4726788468012185 0.1185060457564433  0.4000997538361018 0.7274334460394527 -0.05524970377357666  0.1938275052163325 0.6938988075495152 0.03268211754021733  0.3539311094273428 0.8110411613105711 0.1428620220339987  0 0.9992217844664394 0.02181779438076782  0 0.9797478924229182 0.1948604103703783  0.7981036710574224 -0.282491452577968
[...]
<PointData  Vectors="state-0"> 
<DataArray  type="Float64"  Name="state-0"  NumberOfComponents="3" format="ascii">0.0000000000000000e+00 2.9406328053764003e-02 1.9208882916629134e-02  -1.1261927022174355e-03 1.6288643244771694e-02 1.8407017143812997e-02  -2.6775206403734661e-03 2.8722267806627944e-02 9.4409954706726109e-03  -1.4743703439073458e-03 1.2350359398078603e-02 1.3972644287012045e-02  0.0000000000000000e+00 -1.7825372164567626e-02 -1.8898929682795728e-02  0.0000000000000000e+00 -4.7628466490370553e-03 -1.1106228256313959e-02  0.0000000000000000e+00 -1.1344849869360294e-02 -2.4799965857823209e-02  1.3086955367267188e-03 -1.4183055197692002e-02 -2.0957912290248522e-02  4.8243694896266346e-03 -2.0467935372999367e-02 8.5508252012433759e-03  5.2188276223713538e-03 -1.7237187836332692e-02 9.4101773876962662e-03  4.6116383722467616e-03 -7.8911287412735120e-03 2.9256700979767066e-03  4.5510729816236554e-03 -1.9148839802792632e-02 1.0458456507460067e-03  -3.3254768605062127e-03 1.1621155527448869e-02 6.3277867578037938e-03  0.0000000000000000e+00 1.8360094312919163e-02 4.3248752427166096e-03  -2.0860684118966816e-03 1.3540452044954252e-02 8.7614783030737949e-03  -4.2367759710999948e-04 1.4179861983055948e-02 1.4377564257512638e-03  2.6003568557475331e-04 9.4850252624802799e-03 1.1674010102025657e-02  0.0000000000000000e+00 7.8082600459127962e-03 1.0790356414606812e-02  1.4753948997316025e-03 5.3384839165502339e-03 1.0414822927371002e-02  1.5445121082013212e-03 6.3639061261441332e-03 9.2837689133391660e-03  5.6257643974735767e-03 -9.6963738352731296e-04 5.4987576504509942e-03  4.4228616188679458e-03 -1.5152241709543010e-04 3.2038850766964140e-03  2.8833981668896658e-03 -2.3539057803391807e-03 2.2928810075536158e-03  5.4520443025406415e-03 -5.9435484048106675e-03 3.9690166921913100e-03  4.4447649258178871e-03 -3.4749425282018338e-03 3.8481691957071413e-03  1.0418827209121307e-02 -9.9204823441131525e-03 9.2766693680466760e-03  3.1871073506546952e-03 2.1293353456603977e-04 -1.8452644377384736e-03  1.2831209839392600e-02 4.2678868472203618e-03 -2.4890210627820813e-03  -3.6017663972099696e-04 -2.0791087340809693e-03 7.2716049588639566e-04  1.5135775808626515e-03 7.8761238737474440e-04 -1.4873837090872803e-03  3.1578469509804907e-03 -1.7063109939960307e-02 -1.4018915287703401e-02  4.6092857245265562e-03 -1.8078818782304381e-02 -5.1496058177750411e-03  4.1631338740848074e-03 -9.0780091931387096e-03 -3.7987276361229777e-03  6.0339260452025546e-03 -1.6671949866560416e-02 -8.9795195742174948e-03  2.5902290282092230e-03 -6.3561427318049025e-05 1.3786783496451321e-02  2.0088130949922631e-03 2.1587656423828982e-03 8.7687360505252915e-03  2.3883579224410682e-03 3.2291467947767605e-05 8.2144889741386090e-03  3.3736723064848330e-03 4.0103356504259530e-03 1.1894759387025172e-02  3.1893031362344895e-03 -1.6938356703322217e-03 1.8750167816370606e-03  3.0732962472125626e-03 -2.7633227814989735e-03 4.4020433995318551e-03  0.0000000000000000e+00 -9.8450564202160074e-03 6.4763433022378422e-03  1.4883614525688867e-04 -6.2972483090055582e-03 1.0192792067792467e-02  3.4473490052734282e-04 -9.7228775075770980e-03 6.9634446260177655e-03  2.6075304191376907e-04 -1.7911554948490546e-02 1.6907444163887647e-02  1.6086864792155475e-03 -8.5861401859722887e-03 1.7999227312041005e-03  2.2001183724841113e-03 -6.2067914213722762e-03 4.0488505156150521e-03  2.4540245018265724e-03 -5.9132196814254533e-03 3.2177091112689511e-03  3.3515985057983944e-03 -1.0716546967470753e-02 4.1569092535590334e-03  4.0215099680990362e-03 9.8395390317191338e-03 -6.3497226143066693e-03  2.4265567734364358e-03 7.0317291015476353e-03 -4.2737333648989410e-03  2.2169999257262061e-03 9.5086678888752114e-03 -1.7361647907869616e-03  2.2690695346287504e-03 7.4274317798161483e-03 -2.7200839884945669e-03  3.4103182225701036e-04 -8.5820668228365968e-03 -4.8825451700443947e-03  -7.8244052793453601e-05 -1.3224594739837781e-02 -3.3574809189438593e-03  1.7928553458308595e-03 -1.3158745603888982e-02 -3.5197069446976661e-03  -1.7454772523914933e-04 -1.1739431892419140e-02 -1.1135288356012563e-03  0.0000000000000000e+00 1.3793257281036472e-02 2.4500009709778860e-02  8.5540873200947798e-04 7.9225531778083572e-03 1.8198073984774639e-02  0.0000000000000000e+00 7.2849939209214684e-03 2.6508511392111377e-02  2.0630330539878096e-03 1.0012610939412235e-02 2.4087037910327749e-02  2.8686039134240659e-03 -2.0639695960450091e-03 -9.8640365346858362e-05  1.1267328251531273e-02 -1.0424291660797710e-02 -6.8783627727809372e-03  1.1689363863323168e-02 -5.3537942805406786e-03 -3.8208112455677388e-03  1.8859273363411996e-03 -1.1612087242952997e-03 -1.3174155441636644e-03  2.8892469850960623e-03 -2.0462503524819133e-02 -1.0075345334135658e-02  3.2796302369676226e-03 -9.3837989883500273e-03 -8.4802270848568246e-03  3.2302754275583085e-03 -1.1962782419309455e-02 -2.2235401099315676e-02  0.0000000000000000e+00 -2.3796095306029524e-02 5.8246734460184243e-03  0.0000000000000000e+00 -1.4777825758390681e-02 -9.8676126752767911e-04  7.1354165866343883e-04 -1.5889836161296387e-02 4.7603900852502649e-03  0.0000000000000000e+00 -1.3694368758670755e-02 5.1020448053634652e-03  1.3584196322270108e-03 -1.0055410652677977e-02 -2.2909629414973949e-03  1.2417749055767524e-03 -8.9084434858060519e-03 -6.9086201480828067e-04  2.8988931166246809e-03 1.1494910184719261e-03 -1.1765945054784368e-02  2.1924606434277987e-03 -8.5044758749625580e-04 -9.2644369339505202e-03  2.0194211529252618e-03 1.8012466235259093e-03 -8.4539545211385590e-03  2.8343930279621891e-03 -5.4348167015347466e-04 -8.2602867268773694e-03  1.9997915451145450e-03 1.2763495276160170e-03 -6.6263130784237510e-03  4.4839007790968338e-03 1.0644962350123328e-03 -8.3314755037841547e-03  3.8792505434118848e-03 4.0614470974890795e-03 -1.1986663614690158e-02  4.4553148691956097e-03 -2.2605063272560064e-03 -9.8126316416913290e-03  1.2486455684260174e-04 -1.3449047616841568e-02 3.6179153236267029e-03  1.4752752052620147e-03 7.4303370870302757e-03 -9.3656806020492940e-04  1.3269856755542889e-03 7.0732875287883882e-03 6.4371955795610131e-04  0.0000000000000000e+00 -2.4074639213423790e-03 1.6225008800782731e-02  0.0000000000000000e+00 3.0716047280037822e-03 1.1471085057089775e-02  0.0000000000000000e+00 9.6453141853820824e-04 1.2252503677714157e-02  4.4648857222883158e-04 -3.0845322219768307e-03 1.5879333017666912e-02  1.6702651255276096e-03 -8.3744508853305383e-03 1.1281257616486533e-02  1.2863505156517250e-03 -3.0711481004114458e-03 8.7448615947163400e-03  1.4973918288118233e-03 -3.8790982090386363e-03 1.1936134944532635e-02  4.7732075329506754e-04 -3.5979142116903968e-03 1.2583762624822236e-02  4.7625374654964069e-03 3.3356055377954117e-03 -5.5105800839529004e-03  5.1670452502640962e-03 2.0673307844945067e-03 -4.7800155034648526e-03  8.2931275130864821e-03 1.0549150878643068e-02 -1.2630098176519732e-02  8.8252932292193238e-03 9.1156512087065458e-03 -1.6233543496860341e-02  3.9410828108724380e-03 -3.2774507346416664e-03 2.0852733221287060e-03  1.7309185208693859e-03 3.4802472114659820e-03 9.4522685961151813e-03  1.9245234131394949e-03 1.1932141010648663e-03 8.9273929276775573e-03  2.0217804620639912e-03 2.0769164054861523e-03 1.0884693623549050e-02  1.5936184388975084e-03 2.4849572349951552e-03 1.3291887600350267e-02  9.8752462277506611e-03 1.2340721852765095e-02 3.2192903607125515e-03  9.3921868176717882e-03 1.0103939899547177e-02 1.1548188811286657e-02  4.5102053856083514e-03 3.7596763338373488e-03 1.9676922173296986e-03  9.3103354186562792e-03 1.6103960214292543e-02 1.7157661803205578e-03  6.1297956966171550e-03 -1.5144495704542840e-03 -2.0067484224331387e-02  6.2486800176019697e-03 -1.1710238692093736e-02 -1.8235167689021042e-02  7.7048311635754870e-03 -8.3248724575510531e-03 -1.7312863526339164e-02  -1.5591652763566309e-03 -2.4798005530653131e-03 4.6112904125236815e-03  -3.1629330118591176e-03 -1.0313397745042392e-03 4.8546122353476896e-03  -9.1285779121404707e-04 -5.1704434394428183e-03 1.8538662186767913e-03  7.2259705734354599e-04 -2.0478973654267183e-03 -4.0486769188946396e-04  2.7176067960461600e-03 -5.0018688375392225e-03 3.8870695674827504e-03  2.4901055614989409e-03 -6.9909124380311853e-03 1.3543334773177792e-03  5.0292520920002092e-03 8.0643203387401972e-03 -3.0197518928302071e-03  2.0806544596029281e-03 6.1169814532168083e-03 -1.3126514785508224e-03  1.8859024838429838e-03 5.9314688266529107e-03 1.2609909091130074e-04  2.1764687936335243e-03 5.1712061016352699e-03 -1.1256735941870893e-03  3.8273149730496682e-03 1.8889226103780053e-02 1.0031205949348258e-02  2.0460637376488607e-03 7.6288028019834272e-03 6.9595545265893552e-03  1.2151301021433259e-03 1.9586595346238970e-02 1.1441969985917720e-02  4.7196170933820007e-03 1.4488450729628916e-02 1.6647023366334598e-02  -5.4125702828124785e-04 -3.5766114849185805e-03 -1.9550734287962198e-03  -7.8752365850186870e-03 8.0609004090998382e-04 -5.5064467114093506e-03  -4.2060265231641863e-03 4.8310342826383821e-04 -3.1228992959387949e-03  1.0797247996194722e-03 -1.6781288241113714e-02 1.6498092313214821e-02  9.2228036115117866e-04 -1.1041223038478758e-02 2.3947544178170150e-02  3.1146825435574171e-03 5.5255779762494375e-03 1.1873402867629191e-02  1.5890514792816701e-03 3.3042454791961263e-03 9.0829223641597859e-03  1.2717369704009285e-03 -5.7343718448010349e-03 2.3988522863139721e-02  4.1819465995814877e-04 -3.2792614706415430e-03 1.7498007883352401e-02  2.3251392789600499e-03 -4.0408612917044355e-03 2.5195270337273732e-02  7.0353573164144516e-04 -4.6012056477774208e-03 -1.3327486375932078e-02  5.1026595286550371e-04 -9.7037050657393566e-03 -9.8404082155664416e-03  1.4811696017376693e-03 -5.8243250794062047e-03 -7.1992412245916078e-03  1.7777520286157427e-03 -8.0255228266308300e-03 -1.1220975988132651e-02  6.1022901265666424e-04 -9.9679730364657416e-03 7.2706060575866809e-03  6.2014748339335815e-04 -5.7323196472554034e-03 7.5499178681699246e-03  1.0915375393145592e-03 -7.9382477202629767e-03 7.8546727650434210e-03  1.3060223751831899e-03 -6.8400795300418791e-03 6.7935434568146755e-03  5.7649771131445173e-03 -4.6144133578907478e-03 9.1142398404712392e-03  4.5943860003076747e-03 -8.6934158072212477e-03 -2.8519639702476515e-04  2.2611185498441822e-03 2.6254911371065602e-03 7.1761049782481379e-03  6.0357220481096971e-03 -1.4094555286111816e-02 -1.1031914923427359e-02  4.4826752740650816e-03 -5.2960438189264460e-03 -7.6464188274398028e-03  0.0000000000000000e+00 -2.1871439218142219e-02 1.4391105457529628e-02  3.5362604706937269e-03 5.6025065920366802e-03 7.9941541753590067e-03  3.9485701513164049e-03 6.3645421741487457e-03 6.2093481607201923e-03  3.5294521426131810e-03 8.9446135019698430e-03 5.5125069680200933e-03  2.1013708885179510e-03 5.0926350781975473e-03 -2.4192869366482690e-03  5.0336492849041257e-03 6.3824184481376363e-03 -9.1921987201569830e-03  2.6281834947964634e-03 3.5959975374895998e-03 -4.6105064689959552e-03  4.8713434890396987e-03 4.1330461265714248e-03 -5.4142957062224759e-03  1.0697345173835211e-03 1.8660837640095688e-02 -9.5393458128786822e-03  1.6203906813184097e-03 2.2307270317545327e-02 -1.2098270922411768e-02  1.0103758533677274e-03 1.2460663987926487e-02 -8.8099452163959216e-03  6.8395488609020465e-04 1.4768753381426825e-02 -5.7058584931558879e-03  1.4549815503960605e-03 -1.2259932188171520e-03 1.0629071134415623e-02  1.6132059599954121e-03 -1.5786363931140808e-03 8.9986444100059529e-03  2.0242613859242694e-03 -6.2610518071532233e-05 1.0881473282675360e-02  0.0000000000000000e+00 -9.7110298866479733e-03 -4.9335531044051727e-04  1.4084534699921039e-03 -1.0055397950942398e-02 -9.2998556167015693e-03  2.5617484859777606e-03 -1.2955315024075008e-02 -6.7621827582409044e-03  1.6832721446271926e-03 -2.0808291402580423e-02 -1.7396497326234047e-02  0.0000000000000000e+00 2.1593137990350005e-02 -1.7178203903543996e-02  5.7288225579202670e-04 1.5241859723454871e-02 -1.2367734138887412e-02  -1.0232345724472552e-03 2.7659310477769424e-02 1.0552667727236927e-02  7.7177042875425201e-04 1.0042153179829188e-02 -2.7690696613166346e-03  7.5812028911457265e-05 1.6363256288568731e-02 -2.0138589368991718e-03  2.8312362406059327e-04 1.1083186755827088e-02 7.5854329012867486e-04  0.0000000000000000e+00 1.1364748623659930e-02 -1.4193391413421675e-03  0.0000000000000000e+00 1.5719099034015121e-02 2.1623618037072880e-03  4.0289776424916246e-03 -4.1018668851922823e-03 -1.1277990824939237e-02  2.7543743295943847e-03 -4.5509182765464855e-03 -6.6139190176798509e-03  2.2749338198504191e-03 -2.1696295440432707e-03 -8.8280545463533689e-03  2.3373740879889375e-03 -3.9020642946231503e-03 -6.5182753149305717e-03  2.4433624564180701e-03 3.6818724049787694e-03 -2.1552098134664890e-03  2.6282077960051589e-03 2.5706983248273791e-03 -3.7786491905103022e-03  4.4571840114957387e-03 3.2753016380818460e-03 -2.9583161497694580e-03  7.7146401530143044e-03 -1.2292250163161321e-02 1.7073347066261863e-02  4.3914554700346274e-03 6.9479152757562202e-04 8.4705508508489923e-03  1.0152658099397126e-02 1.5997838760305923e-03 2.1184718743529521e-02  2.4637603669591217e-03 4.4907337100257103e-03 -7.8961402796266303e-03  2.2851332244134032e-03 6.6606868426748456e-03 -6.9403893355191983e-03  2.0746593190274073e-03 6.8759847970490768e-03 -1.1376776597933250e-02  2.5824627588512503e-03 6.5152067486695065e-03 -8.0941622273218682e-03  0.0000000000000000e+00 -1.0491968583345600e-02 -1.0216835843600176e-02  6.0061580349213034e-04 -1.2448856597407465e-02 -1.1946585635173385e-02  5.6720352441759526e-03 -1.5418482940824660e-03 2.2946700858739125e-02  4.3226030286589280e-03 3.2528906412919046e-03 9.4880821194143761e-03  3.9765313975075964e-03 7.8563281770698896e-05 1.0502118563218130e-02  3.9291206732232327e-03 -1.5769660964927359e-03 1.0786626872648883e-02  2.5912493774205604e-03 -2.5962766025074374e-03 -3.3280432289144058e-03  2.3032863386183802e-03 -2.2476731184583967e-03 -4.2650540915941861e-03  2.3912564108210742e-03 -2.7537153648407868e-03 -3.7607944157779807e-03  3.8462277557491185e-03 -2.1394641170717188e-03 -4.2600233771071128e-03  5.7957576823230333e-04 4.1179647034810347e-05 1.5476619464681264e-02  3.6850450899858921e-03 -8.1415596406024023e-03 8.7036115850926202e-03  3.9638453377640534e-03 -3.2260532698267412e-03 1.1209387448423444e-02  3.7656063886948843e-03 -4.4136648373729699e-03 9.9678323539841331e-03  2.4280353583384854e-03 -6.6917258132160890e-03 8.5948640762737224e-03  2.2886679513574280e-03 -6.5901185289561339e-03 -2.5300537559965846e-02  2.3014817482013054e-03 -3.1688942817796662e-03 -1.1912241772723096e-02  1.3867824268415994e-03 -5.2444925431766737e-03 -2.4979664658306741e-02  1.9109203348923016e-03 -7.4081918524392619e-04 -2.3759419916040903e-02  9.9100671325988866e-04 4.8554826273604383e-03 2.6750678718485747e-02  2.2729407305302936e-03 1.2645467195530523e-02 2.1408478812863858e-02  3.7216711720368073e-03 1.0182210474897589e-02 1.1822890391034056e-03  1.1803568047577730e-03 5.9686808040927512e-03 2.9520581603159376e-03  1.7235484143013412e-03 5.4714756934212223e-03 2.1762562276158438e-03  5.5904871572372812e-03 -6.5670039130400716e-03 3.8294418429910830e-03  2.3095751559688896e-03 -5.2845948985648841e-03 1.9415115595495581e-04  3.2123661596741180e-03 -5.0875671999245043e-03 -1.0684836054363248e-03  5.3734692585165507e-03 -5.8327165042448784e-03 7.8479635326558631e-04  1.2279646360040503e-02 -6.3948543897780850e-05 8.1303378136278540e-03  7.9731779819903581e-04 1.6705635444414833e-03 2.0721555072481172e-03  4.2195504036892425e-03 3.8115917732569064e-03 -8.7410210968793395e-03  6.6755308901533649e-03 1.1414942404021687e-02 -1.6847270888521091e-02  3.0650060308772603e-03 -1.6748660123311521e-03 1.1709299833617803e-02  1.8122964404325822e-03 -2.6374171603579799e-03 7.9015960632564230e-03  1.5102595694194637e-03 -4.0051323186738545e-03 6.5054844184096574e-03  3.8442414203019256e-03 9.0546262034819150e-03 -3.6054749837436347e-03  1.1087388056554507e-03 -9.5164537748787855e-03 2.9983823506967247e-03  2.2389200913094341e-03 -1.1704171941332511e-02 6.9887848931028099e-04  4.8014919028662529e-03 6.9420931375588192e-03 4.3627252611103179e-03  2.0519863206371588e-03 5.1756191047004022e-03 4.2413236181132984e-03  1.6647551200369515e-03 -8.2575557045656087e-03 -3.7255133151905800e-03  9.0153024593334040e-03 -1.5518480070592190e-02 5.5602357971821685e-03  7.5001299717986896e-03 -1.4406754157856437e-02 1.1694904541163601e-02  9.4680466905902247e-03 -9.0313141845441668e-03 1.4925925326957945e-02  -5.5605745906257256e-04 8.8024714685851074e-03 1.5437254215716939e-03  -8.3602291390113680e-04 5.3096665962596035e-03 3.4031240368880269e-03  -2.6123057397327195e-04 6.9163467106112342e-03 2.7597666129225771e-03  4.3253566395389711e-03 -8.8181331673918614e-03 2.3751042804961910e-02  4.0223354525225873e-03 -4.3633664659323860e-03 9.2779677284376486e-03  -5.7701538425159490e-04 7.2292473863009351e-03 7.7856317992779514e-03  6.8885495665003905e-04 6.6298706908320586e-03 4.8967688174591717e-03  5.9170719210776110e-05 9.0542396610545431e-03 6.2195265677263290e-03  2.1471274531072657e-03 6.6305735380681298e-03 -2.8502102498475608e-03  1.1899624180020907e-02 -9.2186634442127224e-03 4.3958245635358356e-03  4.0225957333261805e-03 -9.7185986169797001e-03 1.2264179259268762e-03  1.8368022717264176e-03 -7.8218357600755156e-03 1.1062382191930063e-04  2.5979477999108756e-03 -6.7845343148724910e-03 -1.3380426838396798e-03  2.8213415809708303e-03 -5.8890161338121067e-03 -1.2844164519127749e-04  1.6899363679262584e-03 1.7662540546790988e-02 -1.7352958027671436e-02  1.4639373007117960e-03 1.8672138810840500e-02 -1.8799101443104555e-02  8.0477478412856944e-04 8.4005682249117582e-03 -1.0786795056859772e-02  -1.4970168433488514e-04 4.3283135258305764e-03 1.5043808311961681e-02  1.1522161182319444e-03 -2.4691464449921204e-02 1.3022244148751230e-03  0.0000000000000000e+00 -1.4757060038915611e-02 2.0037474168240397e-02  1.1772755960963129e-03 -8.8765597148566053e-03 -4.8099215539044813e-03  -2.2104556588208602e-04 -1.1088265446845972e-02 -1.0206729243333830e-02  3.6100913839250152e-03 7.7739708053209816e-03 2.1085072209826777e-02  3.2635297609367358e-03 -1.0955194221486365e-02 -1.2367382765484944e-03  2.4257978549510101e-03 -7.1501214354376614e-03 -1.5099304283899128e-03  1.4044520128048282e-03 6.3652671178617039e-03 4.8882873237846864e-03  1.2140968672617698e-03 3.6333271620327869e-03 5.4919377638934881e-03  1.8036940376914355e-03 -9.0804273128104757e-03 -2.3042525209265633e-03  2.1817665853281726e-03 -8.1182745679023120e-03 -2.2382396983515978e-03  4.9545995909755901e-03 -1.4252266963298151e-03 -8.2260941949408670e-03  5.3254041379949208e-03 -1.7525367467677369e-03 -6.5886758879072057e-03  7.7144730384920146e-03 -9.1715663942529128e-04 -1.7044738019120365e-02  0.0000000000000000e+00 1.4066283963251816e-02 -6.7337402515415560e-03  0.0000000000000000e+00 2.8256595332995571e-02 -1.2225188725228623e-02  4.8660422909318135e-03 4.3033443986180047e-03 -5.5116211014532516e-04  5.0312325663780010e-03 5.7180613321333442e-03 2.0332177478902570e-03  1.1018513891755863e-03 3.8967430706816492e-03 -8.2747599188953656e-03  1.6798291762463503e-03 3.3692187272047203e-03 -1.3634007379975647e-02  5.0668941884168305e-03 -1.5356351608538944e-02 1.4563388586975661e-02  4.3815797854653438e-03 -7.7844943272423221e-03 7.3932691951835855e-03  1.3389488575538302e-03 6.7945322871261777e-03 9.2137544323769621e-04  2.1487301789074871e-03 -6.4683822974513456e-03 2.1049116875464830e-03  2.8837233005571191e-03 -3.0760490075931030e-04 5.2153952861091661e-03  2.6835237776177247e-03 2.3828639076774112e-04 5.5956721789970033e-03  2.9225431802121457e-03 2.0053386296583885e-03 5.7591648071754530e-03  5.6410360790200625e-03 1.0424673135935208e-03 8.1073405638121994e-03  9.4546367235435278e-03 -1.4647059174922237e-02 -5.6268286528249366e-04  4.0316749339265236e-03 -4.0500079130359589e-03 -1.9745912902242296e-03  2.5774039711491275e-03 -5.7417409586303690e-03 -1.2034655784732505e-02  1.7550398879409882e-03 -5.1070991108622824e-03 -8.179769