<?xml version="1.0"?>
<VTKFile type="UnstructuredGrid"  version="0.1"  >
<UnstructuredGrid>
<Piece  NumberOfPoints="571" NumberOfCells="2204">
<Points>
<DataArray  type="Float64"  NumberOfComponents="3"  format="ascii">0 0.4557658422360288 0.2037239481916731  0.215342302085561 0.4088165324138145 0.276607389891164  0.1898111423118776 0.4804099814266372 0.120481987618956  0.1488218331026943 0.5456085533310675 0.3580349126526996  0 -0.3584022067626158 -0.34713844364978  0 -0.4343749685821028 -0.5981026889621334  0 -0.2183570664703646 -0.4494716729159423  0.2262183546861321 -0.2890645186499676 -0.3992423335076322  0.8236654683860651 -0.3854091937706139 0.1520784617307017  0.9611575557215211 -0.3381064906313395 0.1705616282461981  1.101237692407842 -0.5682744000940003 0.1641358915984834  0.8808535886157749 -0.4013915609715027 0.01807349879338826  0.2768592740765526 0.6713354132414016 0.2942300696330516  0 0.7174485391010063 0.1810648686359916  0.1358245596864188 0.7170315960464521 0.3854999039085954  0.1805154614533415 0.8310021267322617 0.1686271154597134  0.2260044654083829 0.5284200423715826 0.5113804949326196  0 0.6247318086192194 0.7784334564044499  0.2234432804039685 0.5510573463749909 0.8248530136698899  0.2051937258140014 0.6861590858235175 0.7166328779599186  1.436121479967118 -0.1618100638832992 0.3933467488268004  1.607502195396375 -0.1748143324203481 0.2469448255435848  1.541913529235868 -0.4300925108691208 0.4574853456310987  1.346433659029038 -0.4270520351658764 0.2586315063847239  1.542556911883307 -0.3473583885216562 0.1166196836262704  1.396607295547186 -0.1386793780546898 0.1050203081845187  1.68644067764384 0.09489426693876185 -0.2106786860728978  1.481704577030881 0.04548157799178949 -0.0120835870758516  1.738705877114763 -0.03194054357726368 -0.02005955530575017  1.674236160379273 0.2085240449466953 0.0274629254215289  0.8037946419929682 -0.3370944910749437 -0.2466343060504287  0.9362642156920464 -0.3704091732671893 -0.1147956977516422  0.9857831417878248 -0.5299008476462513 -0.3433600658162904  1.045221004397578 -0.3025921429816227 -0.187001915832861  0.5194649326683753 0.03965186697137328 0.7329698387380782  0.6793945283207881 0.2535408389821024 0.9037481344226557  0.7164077726675464 0.05761331572313 0.9294704380642947  0.7957068750075035 0.1527677362072418 0.6682504641370516  1.627668761131291 -0.2749473348912957 0.5032979280239953  1.441039914988583 -0.3039695720636669 0.6201421578283288  0 -0.5157481316615737 0.5311596756682169  0.1752388498574636 -0.4274470340138514 0.6964420531097035  0.2745817512199675 -0.586235345398221 0.4466848625012881  0.2123538086145217 -0.3435876563839098 0.3547882322077363  0.6886953441565045 -0.8994645218821888 0.2614554791402248  0.7925803761983674 -0.7358913891656684 0.5443993262429085  0.9683407667895547 -0.7545578665694681 0.4378949691425725  0.7829392834966107 -0.6369054036577044 0.265784144462074  0.8049799187676107 0.5610888404572143 -0.3400918840523413  0.6955806663620081 0.829343331792612 -0.429140473648113  0.7577552661455027 0.6779093217819596 -0.1086323982351653  0.9092927595716991 0.8360853336671894 -0.2984444117297587  0.2598069211373117 -0.6627931504171131 -0.3175951070732924  0.1764099108743622 -0.8120348674137512 -0.1718130402549574  0.3997599759778838 -0.7545520996465095 -0.160404821653467  0.2226756839645508 -0.7073355731667365 -0.02210405772723709  0 0.3584022064076389 0.3471384433363549  0.156219818557485 0.3681990695396501 0.544612835542747  0 0.2183570659652789 0.4494716717761347  0.231673397548859 0.2888331680572713 0.3989257253052388  1.654861426338621 -0.2478449385455452 -0.06559739536694574  1.428350129602535 -0.1115590829296363 -0.09670693874748981  1.47153404734189 -0.05397042629357812 -0.03559554145352491  1.692529569909899 -0.1112403810512433 -0.2155045758308118  0.6043587999831042 -0.4258877923435302 -0.1637909996322506  0.6956465150978134 -0.4831009610867857 -0.4710971354434343  0.5544405621623107 -0.2427987236227395 -0.3955115419701227  0 -0.4802903493566127 0.1368959947787141  0 -0.7302700985569437 0.09286428021977672  0.1926808816194057 -0.6139415882032969 0.2542662684407305  0 -0.6648512623073015 0.3234225162635865  0.2468218893148968 -0.9514410968355673 -0.2772800963218767  0.2161236652421403 -0.9865572864454526 -0.112821630759336  0.7040807678965115 0.03144525423153868 -0.6784996553169467  0.6049865433828723 -0.09298800456506828 -0.9469011811091913  0.6771532227361217 0.1339387063677078 -0.9301296699811332  0.8211634938249786 -0.0614948596176802 -0.9069759893778435  1.036464561655427 0.07803635001225265 -0.8480026857180265  1.047382312232843 0.1449735934663914 -0.5834636095260999  0.847977007252553 0.2190842168098666 -0.6515780325598419  0.9673540972414912 -0.09218333403450402 -0.6314877750258698  0.1654630623866923 -0.7891482550794858 0.1754039241458947  0.8065091973842723 0.8996210807451531 -0.1516398615176273  0.9689115062321594 0.8697371324164864 -0.05737816468989729  0 -0.05224970938185564 0.7383018464539186  0 0.152057173948395 0.9883716984394171  0 -0.02181779437745626 0.9992217843736096  0.1480076500600712 -0.04226556988656546 0.8228748951508928  0.3570119558679766 -0.3875673443422485 0.6283811022673187  0.3032127927073427 -0.27609906509396 0.947385211707312  0.3710752335953543 -0.1597222693377068 0.7268486788309733  0.1596979455818125 -0.2274471135455735 0.7803051869954362  1.383661570440923 0.3500806804477891 -0.3732923251768873  1.466985613337009 0.1703829661173299 -0.3704672574792687  1.339191945049393 0.1603992931247615 -0.1392787093071194  1.218793485220007 0.1524777818547855 -0.2381940101844883  1.602030729744447 -0.5096923759111893 0.3039517603136516  0.2819554713663738 0.3978050956554593 0.9044496162677476  0.4858574754451384 0.2185511741074815 0.9441265533577465  0.3009349333273584 0.2245304454724337 0.9612324617992346  0.379728425704766 0.280606621983304 0.6665473761657372  1.444127185672022 0.1075723840985631 0.06057743607179902  1.378055437130003 0.08638063566135351 0.1627644389880674  1.533532002695516 0.2881113291306691 0.2226708993650882  1.356915764058502 0.1947065627274188 0.05292547050348874  0.9249051061462799 -0.02602338380190757 -0.3890518287049182  0.9512388581902265 -0.191188988513543 -0.3322379378462166  1.135906844855498 -0.1032642586232273 -0.3097927758696814  1.881364268925326 -0.140513086430453 0.3033057710900302  1.934322816827055 -0.05337530921901619 0.226075258562982  1.877213964533651 -0.2395345478348945 0.2224375002219985  1.735446578002003 -0.1851048010644701 0.1003449960561909  1.186577623012013 -0.6419807307222345 0.4790354508382345  1.033837735191197 -0.8226358658489163 0.2224324767312418  1.220110330933713 0.5579069237118678 -0.1384241073880815  1.202641783759364 0.7660089775647176 -0.2059219350323402  1.348204362088659 0.7291701336566525 -0.08553858199864187  1.373890877408544 0.643443481897465 -0.3295312840141351  0.8889403608854015 0.3440656474620377 0.202206313611441  0.7633070877744067 0.4829563714339042 0.4609914933946992  0.6074025488328552 0.3980824031539547 0.2202074157880716  0.8498411362142491 0.2538314141398708 0.3183972385314329  1.906971030501883 -0.02924262873585302 -0.2925304055025031  1.917841471920854 0.1280070835989337 -0.2332969757870052  1.977100064565325 0.03461277913397159 -0.1242052986087955  0.3803691808866855 -0.3355579543064399 0.3465621272107741  0.230692984353059 -0.2010076006014083 0.4497433381602904  0.64730757425909 0.3193924789905956 0.6430219874668933  0.5312493112787571 0.3869819773062052 0.88013158366127  0.1981178548262078 -0.08266711518446004 0.4878219796120337  0.1507883552693025 -0.06619623858581572 0.653824196075696  0.3173745720928878 -0.03479593819612045 0.486488455054065  0.2407519661948721 -0.2942799243084049 -0.6679877304763879  0.1447181131051986 -0.5563999954157572 -0.5926523225276602  0.2230025032730146 -0.5510695149780613 -0.8248711742736513  0.4209850149827287 -0.4440580800016051 -0.5525257008565216  0.1716153851630315 -0.6666872237464663 0.5373944942519072  0.2368004460370194 -0.5856959765217175 0.7985771930839038  0.1929790441535802 -0.7172143285528213 0.6867043074441012  0.3361270406401012 -0.7109442361065206 0.6808248927354941  1.231410932483969 -0.2849146919313793 0.4605665905528151  1.110789378543992 -0.5894825827383308 -0.1067217944497213  0.8408046771696551 0.3497636183210086 0.8330429381184914  1.142942431521951 -0.2180429942377705 -0.234249801634715  1.076847482432394 -0.3421567079452609 -0.5159050543339727  0 -0.4042503680362676 0.2927297205034136  0.9376478613173151 0.301269473405784 0.577571779432505  1.104332712259922 0.3987677063979381 0.5106339932066641  0.9831612809725235 0.5290948589007964 0.3884115874044889  1.178465479798848 0.6477217256402028 -0.4758816668598858  0.9929652204741933 0.4334281188487362 -0.4635541053406589  1.261911899573236 0.4897003834983976 -0.596028440710165  1.207759715786344 0.4238689013699606 -0.3198509399978258  0.1481472324300359 0.5739240544778232 -0.2790540507606966  0.2546555330241972 0.4419467201837363 -0.2146549363952016  0.2967718881738725 0.5745374608476215 -0.4594495357992309  0.2393835589042319 0.7062628630168708 -0.2503816715840821  0.2282246281134045 -0.1080099340663203 0.9865598892110472  0.4178442724260187 -0.1245374237060022 0.9684717349810656  0.3881404830163965 0.06411321972342053 0.9776678414861761  0 -0.9797478924171443 -0.1948604103628404  0.3426893074645813 -0.6305825071524406 -0.5053249099733295  0.5224124653367972 -0.6441468842677944 -0.3200369093567181  0.3978795981623498 -0.3978389693554893 -0.2691547580651357  0 0.4042503686430302 -0.2927297209337942  0.1715523702503297 0.4856012358052686 -0.4114946992370639  0.3285090128755508 0.4726788468012185 0.1185060457564433  0.4000997538361018 0.7274334460394527 -0.05524970377357666  0.1938275052163325 0.6938988075495152 0.03268211754021733  0.3539311094273428 0.8110411613105711 0.1428620220339987  0 0.9992217844664394 0.02181779438076782  0 0.9797478924229182 0.1948604103703783  0.7981036710574224 -0.282491452577968
[...]
<PointData  Vectors="state-0"> 
<DataArray  type="Float64"  Name="state-0"  NumberOfComponents="3" format="ascii">0.0000000000000000e+00 1.7993076807835473e-01 1.5277806403543101e-01  4.2015151000753172e-03 8.4656281544601822e-02 1.1020267019051670e-01  -1.0581166389440750e-03 1.3609367251412971e-01 6.8757677551540705e-02  1.0919672996615778e-02 4.5571714151541196e-02 1.3411589162802739e-01  0.0000000000000000e+00 -6.6543409787429564e-02 -1.1301931185052026e-01  0.0000000000000000e+00 2.6549932020363338e-02 -1.2040683712153692e-01  0.0000000000000000e+00 -2.7810383170099186e-02 -1.3411724585424267e-01  -2.1945803455138118e-03 -4.3695214125806098e-02 -1.2263404374004433e-01  2.2083137239016535e-02 -1.0992003939538124e-01 1.6851814784858653e-02  2.5997595355164042e-02 -9.5965750750573356e-02 2.5066759537275583e-02  2.3563448077110586e-02 -2.1620016135615337e-02 5.4601501558115779e-02  2.4954618648621533e-02 -1.0340079366895132e-01 -1.9853734735825360e-02  -6.3682976168444863e-03 6.6239988630069330e-02 9.4318072415219834e-02  0.0000000000000000e+00 7.8645529265076689e-02 7.4871012001409387e-02  -5.4315126174409403e-04 5.4086441834810831e-02 9.6595624462064114e-02  4.1499380339884429e-03 7.2922358346383928e-02 5.0598453790413216e-02  8.4569945295604968e-03 7.9406123168607474e-03 1.2523171603538646e-01  0.0000000000000000e+00 3.3700326610477914e-02 5.6759680094557542e-02  1.1947762626704278e-02 2.2065644211978409e-02 6.4449107911284331e-02  1.4364564121851421e-02 2.3126594459680839e-02 5.1394779663264771e-02  2.0024882739595878e-02 5.3153011293248648e-02 4.3569348987664083e-02  2.3672411055295595e-02 3.6775635779307619e-02 4.3158319881826480e-02  3.2180996808234010e-03 -2.2259972628884497e-03 3.0758141545232088e-02  3.1510456606487332e-02 1.4521126205062174e-02 6.5127783151147825e-02  2.0379980946536834e-02 5.6332828705408190e-03 6.3702538888942242e-02  8.8697455598713046e-02 -5.5464990269148813e-02 2.8878258985210296e-02  2.6400537121268917e-02 -4.3760351716984426e-02 -2.7002416117768650e-02  1.2172578656571453e-01 2.3777635584415809e-02 -1.9931656219686619e-02  2.7041302646075203e-02 -2.2978762642673706e-02 -9.6613675211075778e-03  3.1023114189897373e-02 2.8530732506244643e-02 -3.3518247287498741e-02  1.1427654621971484e-02 -6.9246251306348719e-02 -8.7132846759583979e-02  2.5289755329044993e-02 -8.9078376179141369e-02 -5.6763484382478795e-02  2.0723548311763460e-02 -5.6341989089071114e-02 7.7038242907641880e-05  3.3565663559227334e-02 -7.2716629772390254e-02 -6.9005501108705944e-02  1.3355554507418576e-02 -2.6804427002565374e-02 7.6661340075259918e-02  1.3418490244879018e-02 8.6580045409482918e-03 5.0060138121195953e-02  1.2223456772728654e-02 -3.5779629314766420e-03 3.7834798344005903e-02  1.9021459827745564e-02 3.1984986749760108e-02 5.6540653748032348e-02  -1.2374073041601489e-03 6.5284476717552605e-03 2.7654187149669048e-02  2.3610289530036676e-03 1.0521259364090403e-02 2.9875301950691879e-02  0.0000000000000000e+00 -1.2223560852966844e-01 -6.4442183885933795e-03  7.4723340285166211e-03 -7.3071866224545243e-02 2.4187379558598326e-02  1.8511194731049645e-03 -9.5893165879992123e-02 4.9509601273525850e-03  6.2870556709917059e-04 -1.1582652708567640e-01 7.1054326333925333e-02  8.9989572902803416e-03 -4.3191430361009246e-02 4.4854225124625995e-03  1.2116359149432772e-02 -3.1875091794109148e-02 2.4571135518354357e-02  1.1350723398314019e-02 -2.8188893522832246e-02 2.3570015297498310e-02  2.2262877774310141e-02 -5.1700543481470629e-02 2.8680945487195984e-02  1.5202813617518844e-02 5.0441359901565126e-02 -5.1058289645121144e-02  1.0409151949605396e-02 3.3219542834132573e-02 -1.7420251304889871e-02  1.3180214321034507e-02 5.4547690886343196e-02 -2.6966313671128696e-02  4.6609981059443509e-03 3.9619629151025813e-02 -1.6218803489417365e-02  -2.4899944565954916e-04 -4.4321015691434408e-02 -8.2582260418414002e-02  4.1696002522293007e-03 -6.4755923534782683e-02 -6.9102969436143885e-02  8.3712715408692066e-03 -5.7708065576032211e-02 -4.6739030322718089e-02  2.2355821324511922e-03 -8.0400285063459628e-02 -6.6984463541618841e-02  0.0000000000000000e+00 6.8532681238325691e-02 1.4717454931300605e-01  3.8521722552713926e-03 -1.9928743406040254e-03 1.2737435187918061e-01  0.0000000000000000e+00 2.3673855737458085e-02 1.3291975020366953e-01  9.5094469580212157e-03 4.8384579404062628e-02 1.3093671227888976e-01  3.4869605340025832e-02 -3.4469935367106685e-02 3.9002387544228523e-02  8.8674868281908598e-02 -5.0021458745974953e-02 -5.4428532842896310e-02  1.5589052785962057e-01 -2.9613360722738999e-02 -2.9846533218345024e-02  2.9852432390612967e-02 -4.3774071755069102e-02 1.8210988059583683e-02  9.1169261169194108e-03 -9.5845747172747700e-02 -7.5759488250289678e-02  1.3273378598119936e-02 -4.2667224350601315e-02 -5.3983641785034293e-02  5.0883521556553931e-03 -3.2053067363468753e-02 -1.2467201867770397e-01  0.0000000000000000e+00 -1.2918095668605192e-01 5.2446443539951220e-03  0.0000000000000000e+00 -9.1641362236457954e-02 -7.7805919295793891e-02  -7.3346316608375824e-04 -1.1176497572661821e-01 -2.6036364709618048e-02  0.0000000000000000e+00 -1.1412027660096745e-01 -4.6489900322157086e-02  7.3694485789021717e-03 -5.2507601667427989e-02 -3.2011631031683904e-02  8.6252185712431140e-03 -4.4387948899247173e-02 -1.6467960881454458e-02  1.3458326191652811e-02 1.1246817664419000e-02 -6.8628189154461880e-02  1.4626165385394994e-02 6.1393017732641348e-04 -4.7903021942122377e-02  8.1741461573393518e-03 1.3891852423273362e-02 -4.5105423244049862e-02  1.5285530528934986e-02 -3.4597372951755793e-03 -4.2930693245997423e-02  4.7753797629487577e-03 -1.8277817321790156e-04 -2.6122279206167803e-02  1.9676268956433887e-02 -2.0046739622675985e-02 -5.4563954963018316e-02  2.4776550592061120e-02 6.0924037434676344e-03 -5.9697599624358284e-02  2.2357536694670107e-02 -3.0993413362490958e-02 -4.3920653158346194e-02  2.9415949782496836e-03 -8.7706508923360543e-02 -3.2618430023540979e-02  -3.3489078240776153e-04 3.8935430100419458e-02 -5.8014970982116281e-03  4.1907825157460514e-03 4.0140561982307560e-02 -6.7118221067880204e-03  0.0000000000000000e+00 -9.5151304799969486e-02 8.1825507907820214e-02  0.0000000000000000e+00 -1.0022860588932423e-02 4.7075583044095134e-02  0.0000000000000000e+00 -2.1282793717789118e-02 6.0162963661197971e-02  4.0762700680602179e-03 -7.8785059234538921e-02 8.3365214244375305e-02  1.5306474879658747e-02 -7.6502281509321174e-02 3.9164327246331308e-02  8.9495605666229817e-03 -3.7762955403102184e-02 4.6631129889254025e-02  1.1086508739976107e-02 -5.6270790403883372e-02 6.1041763107201288e-02  6.0940458560541939e-03 -8.1175382144475505e-02 4.5348174602143861e-02  3.6148003337060017e-02 -4.4231800248060490e-02 -4.4708463010216547e-02  2.5770433552650341e-02 -3.1379353075082481e-02 -3.9637317302186552e-02  6.2219890402647679e-02 4.6826869393832737e-02 -5.3783766708816579e-02  4.5353502334763186e-02 4.7290156293344494e-02 -7.2097068042171752e-02  8.4424505782058745e-03 -1.2232783200637434e-02 3.3233675086236140e-02  8.4701717415906243e-03 6.2116553951678602e-03 5.7811162463320000e-02  9.0042614844483369e-03 -5.7565222820724375e-03 4.4338630957048875e-02  1.2110531220303393e-02 -5.7027547262149987e-03 5.8516837398695960e-02  9.7218349509889355e-03 -1.6733373794110534e-02 9.5044554102271001e-02  1.0067044562342138e-01 3.7116308141086317e-02 1.0705628464687082e-02  8.4227190793530873e-02 2.2036095823717790e-02 4.2678766577466852e-02  1.8164088119340810e-02 4.4587262472801245e-02 -3.2169071654325504e-02  7.0021653702051934e-02 6.1985184396086301e-02 1.1713693288955274e-02  2.1621418806960592e-02 1.2131238739825778e-02 -1.0314055937589409e-01  1.5992748136198939e-02 -3.6647308087470812e-02 -9.9724480150089875e-02  3.2539942448637123e-02 -2.4842366556688138e-02 -9.1852242967607425e-02  -4.5082418610122247e-03 6.8841458085129982e-03 2.0427770610911392e-02  8.7320282109501195e-03 4.0157360942598150e-03 1.2535048224136470e-02  -6.2898181033599976e-03 5.1849678663915015e-03 1.8418367397870315e-02  -9.2767761016288378e-03 2.4421014930047086e-02 1.1477049723551014e-02  3.5121191879196752e-03 -1.5535398309113027e-02 2.5980703924473304e-02  9.1577567611995925e-03 -3.6988577503353923e-02 1.3543619058281763e-02  3.1212399263658257e-02 6.6021583673662697e-03 -6.5286684081064694e-02  -1.5125510868041817e-03 2.5646730689631497e-02 -1.8183189357292850e-02  -3.4023050424007224e-04 2.5986426881375695e-02 -2.5121560015569054e-02  -2.3227890780096092e-03 2.0620791167446296e-02 -2.1763627305404369e-02  2.1479458770357694e-02 8.3013007280680520e-02 6.8446004293654369e-02  8.9628429036254630e-03 5.2019382667879643e-02 3.6491680880679438e-02  6.1045260830217439e-03 8.3796398818478349e-02 7.8865913273494279e-02  1.9397115220902577e-02 5.1808549692120974e-02 9.4373490251634454e-02  1.2074426342295512e-02 -2.9430442158127741e-02 -1.8221801067022397e-02  8.9053418334727030e-03 -2.0563860344179927e-02 -1.3773016716291020e-02  1.0688671251983993e-02 -1.2956006984119089e-02 -8.3876149275980173e-03  3.1467814094445412e-03 -1.1072989345300469e-01 6.7820833837422267e-02  2.1503743831265939e-03 -8.4586079914766077e-02 1.0977244920937783e-01  1.1752111737945749e-02 2.2832442461352256e-02 6.1846985629973497e-02  6.2514241670312562e-03 9.8345502779950481e-03 5.5783162162366375e-02  5.8316335669669967e-04 -5.1019636060226664e-02 1.1972475244588443e-01  8.8656620712715460e-04 -7.4331378411387303e-02 9.2114831408096579e-02  3.3941632503244413e-03 -4.1024608736950498e-02 1.2657739863375914e-01  8.5421946545677103e-04 2.0955848368470108e-02 -9.9163408981740059e-02  7.5985085437200728e-03 -1.0227579919211848e-02 -9.7709239268667702e-02  1.2196843987655049e-02 -2.2590592205393133e-02 -4.1498613235623837e-02  2.5532142109924438e-03 -2.2023679783717259e-02 -8.7794276899161458e-02  4.4802554130014662e-03 -8.0276386429822155e-02 2.9951080131347418e-03  4.2498874904764129e-03 -4.8364334419417683e-02 3.1233854359919155e-02  7.7612116942001510e-03 -5.9981423155765122e-02 3.0610705773231717e-02  7.5504403957793202e-03 -4.5044363990732035e-02 1.9540374669611355e-02  2.5599934290738452e-02 3.0268382395654245e-02 5.7164176622161875e-02  2.7706989332900629e-02 -4.1541355797352443e-02 4.2853068531390356e-02  1.2891575476289769e-02 1.3604207432182462e-02 3.1405337153971730e-02  3.5936480490214098e-02 -5.1600937161663724e-02 -6.8074117767629880e-02  2.5018548002546086e-02 -5.2467159696145758e-02 -1.1322045265267353e-02  0.0000000000000000e+00 -1.2462736623089790e-01 5.0148877591376123e-02  1.8391409384531827e-02 5.5810120417878674e-02 1.8662266131067039e-02  3.3650898644128943e-02 6.9134393779555603e-02 -2.0462056122918432e-02  2.2854528956129171e-02 6.3049216643748698e-02 -1.4406919033603749e-02  1.2482710911265475e-03 1.9202134486652152e-02 -2.8352747606680665e-02  2.4087827944031998e-02 1.2120361231279167e-02 -6.1410857680423231e-02  5.3605763336597410e-03 1.3437731193384967e-02 -3.1114010772428362e-02  2.0737634044786776e-02 1.0463133289540983e-02 -5.9979084106541403e-02  1.7410500743851528e-03 1.2705897814646208e-01 4.5653987829577620e-03  2.5351337994708452e-03 1.3624882430915183e-01 -3.0939697426562496e-02  2.3191793606434090e-03 9.7544008968056442e-02 -2.0533605443242429e-02  5.2838085217433691e-03 1.0119587791391832e-01 1.5888416291110662e-02  1.2233040148167298e-02 -2.8606548148445321e-02 5.7471329403520045e-02  1.3249089572939512e-02 -2.5377151306233633e-02 4.7841298418051965e-02  9.8672423593212828e-03 -1.4800575186284543e-02 5.2288684573937219e-02  0.0000000000000000e+00 -5.8551891170382467e-02 -2.2683773346219637e-02  1.2030400885753275e-02 -2.9226699475348807e-02 -6.8959106331978104e-02  1.0698481492376670e-02 -5.3392582689477934e-02 -5.6426318669043331e-02  2.4278374346603515e-03 -8.3466874046918535e-02 -1.0523603184206186e-01  0.0000000000000000e+00 1.2976566398248854e-01 -5.1039751837448952e-02  -3.7217432793173960e-03 1.2376956722677138e-01 -2.2863107251479952e-02  -8.9330078687040572e-04 1.2644342076598641e-01 7.3854153822398058e-02  3.1352473013260417e-03 7.9272570870613401e-02 1.3928673986238108e-02  1.1580656857451957e-02 1.1056788294550722e-01 5.0617790875796001e-02  3.7581351016194174e-03 3.3199422188802230e-02 3.8066396784390784e-02  0.0000000000000000e+00 8.8597844213854832e-02 1.7426983260886663e-02  0.0000000000000000e+00 8.5263600041252732e-02 2.0235050225299301e-02  2.2044469895979187e-02 -2.7936800292726695e-02 -5.4845262971845610e-02  1.1696630973111893e-02 -1.7302440580622087e-02 -3.1718966837294228e-02  1.1681016365466984e-02 -6.1201105700044271e-03 -3.9109061924585103e-02  1.4079085415689103e-02 -2.4525224897039663e-02 -3.0996106493864958e-02  4.4771794929490630e-03 6.5985123311046931e-03 -2.5900309223803496e-02  4.3238044325531353e-03 -5.5412839427897128e-03 -3.5636866117331474e-02  2.9197560041536626e-02 -2.2769849787226303e-02 -4.9928932706283152e-02  3.2348555886551215e-02 -7.2810516734048009e-02 6.5644002181528008e-02  1.6815698336846045e-02 4.0529187776615419e-02 4.8679988501902326e-02  4.5132288431648702e-02 -9.5350033770617987e-03 8.1387442346773670e-02  7.9213011043215709e-03 2.6861291407299624e-02 -3.7777183032341878e-02  9.5823841063725386e-03 4.5119773782389690e-02 -3.6479430772903013e-02  4.1399770922002808e-03 6.3885916439990670e-02 -5.3813464030633577e-02  1.3568877386417467e-02 3.0294857999888233e-02 -4.3460410988151267e-02  0.0000000000000000e+00 -1.4271917147567948e-02 -1.2298431728690164e-01  -1.1079396741957848e-03 -3.4557672724493012e-02 -1.1212949482609115e-01  2.5266611586302376e-02 -3.0894832979281649e-02 1.0168667824701326e-01  2.2653886369172725e-02 5.3564128402488233e-02 2.7807561761549169e-02  1.2376347974498818e-02 -5.0775263752079339e-03 6.6730196807616701e-02  2.4218375929826542e-02 3.6856399956956311e-02 5.5109564923290541e-02  6.9837618909845854e-03 -2.8202431257705832e-02 -3.2795332633557793e-03  4.2678128125722319e-03 -2.7522322886690334e-02 -4.0989409141167273e-03  6.3216944398768321e-03 -2.6802498350158421e-02 -5.7404814150967109e-03  1.5274130156556704e-02 -4.9263661749425820e-02 3.1283622946819523e-02  2.5684587824912810e-03 -5.3258674412758916e-02 8.9192149990093936e-02  1.9027668977551846e-02 -3.7262544955549967e-02 4.9931892253760712e-02  2.8443025095872498e-02 -2.4718979318307218e-03 5.6269710633602657e-02  1.6795328811035251e-02 -4.0251256491819862e-02 5.6814644584039183e-02  1.6500432460604088e-02 -3.4858770961013738e-02 3.9943637415398477e-02  -9.1529980335328543e-04 -7.9859580853956075e-05 -1.2696382698270339e-01  3.2268410535861700e-03 1.0121819452164494e-02 -8.1586349778181105e-02  -4.1866952660328839e-03 2.2951489245146830e-03 -1.3028253417448940e-01  -2.2169259269295459e-03 3.0736662663676095e-02 -1.2851143457183073e-01  3.3734278644473388e-03 3.6677176471268144e-03 1.4044660088828559e-01  9.1306747500931700e-03 4.9136446052080562e-02 1.2499110092097027e-01  2.0886711433291485e-02 5.3864326122032312e-02 -3.9135597431279083e-02  2.2258239254716989e-03 2.6766978618304172e-02 9.9398645957720841e-04  1.0417765647398548e-03 3.3713833696358768e-02 -7.3819613681095596e-03  4.3023033260130947e-02 2.6392158135866606e-03 7.1479622625896910e-02  6.4496903858133874e-03 -3.0403446380990167e-02 2.5482781827682755e-02  8.3928512684648612e-03 -2.8665152547163196e-02 1.6078219057945167e-02  2.8212753489278816e-02 -4.0534150023187825e-02 5.6500080047970198e-02  1.1324307748726881e-01 -8.2754591620337881e-03 2.9291191831446003e-02  1.4845655266447332e-02 3.0835728826756517e-02 1.9883760951535774e-02  3.6430468663972496e-02 -2.9364633610141015e-02 -5.2424731154757452e-02  3.2125238177790380e-02 6.9095647224186277e-02 -7.4588106196297188e-02  1.8447467209351864e-02 -1.7668369011666921e-02 5.6674102551276001e-02  7.5235769610570661e-03 -2.3892769264836022e-02 4.1926851276705014e-02  1.5263056423118473e-03 -2.8313367228193342e-02 3.7586783123474861e-02  1.9932060570416254e-02 3.7270910457882458e-02 -5.1204888823136181e-02  7.4598876123990378e-03 -6.4285126407845936e-02 -1.4683007477234266e-02  7.8274142117117085e-03 -6.7904118007340142e-02 -2.1105562889785826e-02  2.1734776756152801e-02 6.2989940386175974e-02 -1.2676135504745646e-02  6.3753220322598277e-03 3.5410975351927478e-02 1.4151359517607478e-03  1.3081288813693980e-02 -3.2795270961750965e-02 -2.9753918953778512e-02  5.5664371241274969e-02 -7.4937464148861571e-02 1.1891074026819047e-02  4.3347566090629321e-02 -8.1416659146646669e-02 4.2008418567467981e-02  4.9187723832449667e-02 -5.2377056156928697e-02 5.6683419355041051e-02  8.6251538006372475e-03 5.6945270461668723e-02 3.0328644068629326e-02  1.4017723923136265e-04 3.8929813839257636e-02 3.7562519834080065e-02  2.0672799933110769e-04 3.9929307104127884e-02 2.4106472982317953e-02  1.7064847623264077e-02 -6.8232374482881067e-02 9.4780779218731501e-02  2.0240581988304064e-02 -2.9481942235351599e-03 6.3763865262102731e-02  3.8658010102023909e-03 1.1197818067767000e-02 6.7992231048589147e-02  1.1837407974009174e-03 2.8448196937851441e-02 3.7534974211016127e-02  6.1500121641790088e-03 3.8075006026280223e-02 5.9502117076649652e-02  3.8171482821706478e-03 3.7364170792760623e-02 -2.2883388984171315e-02  1.1936502750936887e-01 -5.4642580687214184e-02 1.9260983909667308e-03  2.4743858391862564e-02 -5.1039751397222416e-02 2.2150750610863499e-02  7.6672635670038611e-03 -4.1878204751323665e-02 3.2756265397675421e-03  1.3064730770072388e-02 -3.3669247777801017e-02 4.4573857927352996e-03  7.4810773673230409e-03 -1.9526508139099143e-02 1.2460147461830823e-02  7.6910325303518822e-04 1.2101527585973468e-01 -6.8657476120752348e-02  2.7162457338035747e-03 1.1819322619232661e-01 -7.2114920380105405e-02  5.9685472374729090e-04 8.7960837360540306e-02 -3.6562429924367749e-02  5.3088957937289984e-03 -3.4945797908561858e-02 9.9908034817149813e-02  1.6584771771174344e-03 -1.2720512370219836e-01 -1.7283874102500756e-02  0.0000000000000000e+00 -9.6264959298354005e-02 9.4226878372735134e-02  7.2817995627256875e-03 -4.1778271240080926e-02 -4.1041091909416211e-02  2.7395103921351756e-03 -3.1617251024593999e-02 -9.9967231634325054e-02  1.6994029624039963e-02 1.3969225513480989e-02 1.1872016062582293e-01  1.5645782221305273e-02 -6.3208330325186621e-02 -1.5387951026622996e-02  1.0238417772511258e-02 -3.2722000237850754e-02 -5.5199520751755332e-03  3.4234195880687890e-03 3.0012314746003303e-02 1.7478566902703611e-02  -1.1864086713801792e-03 2.0075291228399489e-02 1.1314728800184424e-02  8.6484939848511071e-03 -4.0443500242434621e-02 -2.6169446752566716e-02  1.0392571165069685e-02 -3.2487940535224073e-02 -1.7959954276946872e-02  2.7274320405316074e-02 -4.9420036823315326e-02 -2.2933613067177776e-02  3.2391530783371592e-02 -4.9483669469286125e-02 -1.9897434309787687e-02  4.0524697924457918e-02 2.9631263739938497e-03 -8.2107260836452409e-02  0.0000000000000000e+00 1.1776424294062315e-01 2.8762426945060676e-02  0.0000000000000000e+00 1.5028947313272845e-01 -1.1091151035300525e-02  2.9172431822847754e-02 4.4136247656287649e-03 -5.3836063798336851e-02  3.6128689697938032e-02 3.8032158165074936e-02 -5.5072365220798475e-02  4.1874403375695224e-03 2.8866176612714442e-02 -3.3360087974466719e-02  1.2219710158843421e-03 5.5274522340486271e-02 -7.7459431215176622e-02  2.0316900578678593e-02 -9.7736182600739657e-02 5.4837021762802481e-02  2.1381763320997855e-02 -1.6038347854235614e-02 5.2319053317934787e-02  -5.3467987041171800e-04 3.0626663021850468e-02 -1.2349553493569521e-02  3.9055674143047051e-03 -1.9155584525980367e-02 2.7323978607208213e-02  -3.7186260413633686e-04 2.5235876228219531e-02 2.3786890022686264e-02  4.6999564062347751e-04 1.9446302304394966e-02 2.7161126852446069e-02  2.1429573138571651e-03 3.1932041355919580e-02 2.3505967019976752e-02  2.5630372728004502e-02 7.0392672885513749e-02 2.4714536018423251e-02  8.4780505791012040e-02 -7.2277231066014622e-02 -2.0480316516265744e-02  1.5593164164248122e-02 -5.7601132154414411e-02 4.0727047456328942e-02  1.7706123834556862e-02 -1.8374921989262306e-02 -5.2988771627560834e-02  1.7509832692101223e-02 -1.6985336188980123e-02 -4.580