<?xml version="1.0"?>
<VTKFile type="UnstructuredGrid"  version="0.1"  >
<UnstructuredGrid>
<Piece  NumberOfPoints="571" NumberOfCells="2204">
<Points>
<DataArray  type="Float64"  NumberOfComponents="3"  format="ascii">0 0.4557658422360288 0.2037239481916731  0.215342302085561 0.4088165324138145 0.276607389891164  0.1898111423118776 0.4804099814266372 0.120481987618956  0.1488218331026943 0.5456085533310675 0.3580349126526996  0 -0.3584022067626158 -0.34713844364978  0 -0.4343749685821028 -0.5981026889621334  0 -0.2183570664703646 -0.4494716729159423  0.2262183546861321 -0.2890645186499676 -0.3992423335076322  0.8236654683860651 -0.3854091937706139 0.1520784617307017  0.9611575557215211 -0.3381064906313395 0.1705616282461981  1.101237692407842 -0.5682744000940003 0.1641358915984834  0.8808535886157749 -0.4013915609715027 0.01807349879338826  0.2768592740765526 0.6713354132414016 0.2942300696330516  0 0.7174485391010063 0.1810648686359916  0.1358245596864188 0.7170315960464521 0.3854999039085954  0.1805154614533415 0.8310021267322617 0.1686271154597134  0.2260044654083829 0.5284200423715826 0.5113804949326196  0 0.6247318086192194 0.7784334564044499  0.2234432804039685 0.5510573463749909 0.8248530136698899  0.2051937258140014 0.6861590858235175 0.7166328779599186  1.436121479967118 -0.1618100638832992 0.3933467488268004  1.607502195396375 -0.1748143324203481 0.2469448255435848  1.541913529235868 -0.4300925108691208 0.4574853456310987  1.346433659029038 -0.4270520351658764 0.2586315063847239  1.542556911883307 -0.3473583885216562 0.1166196836262704  1.396607295547186 -0.1386793780546898 0.1050203081845187  1.68644067764384 0.09489426693876185 -0.2106786860728978  1.481704577030881 0.04548157799178949 -0.0120835870758516  1.738705877114763 -0.03194054357726368 -0.02005955530575017  1.674236160379273 0.2085240449466953 0.0274629254215289  0.8037946419929682 -0.3370944910749437 -0.2466343060504287  0.9362642156920464 -0.3704091732671893 -0.1147956977516422  0.9857831417878248 -0.5299008476462513 -0.3433600658162904  1.045221004397578 -0.3025921429816227 -0.187001915832861  0.5194649326683753 0.03965186697137328 0.7329698387380782  0.6793945283207881 0.2535408389821024 0.9037481344226557  0.7164077726675464 0.05761331572313 0.9294704380642947  0.7957068750075035 0.1527677362072418 0.6682504641370516  1.627668761131291 -0.2749473348912957 0.5032979280239953  1.441039914988583 -0.3039695720636669 0.6201421578283288  0 -0.5157481316615737 0.5311596756682169  0.1752388498574636 -0.4274470340138514 0.6964420531097035  0.2745817512199675 -0.586235345398221 0.4466848625012881  0.2123538086145217 -0.3435876563839098 0.3547882322077363  0.6886953441565045 -0.8994645218821888 0.2614554791402248  0.7925803761983674 -0.7358913891656684 0.5443993262429085  0.9683407667895547 -0.7545578665694681 0.4378949691425725  0.7829392834966107 -0.6369054036577044 0.265784144462074  0.8049799187676107 0.5610888404572143 -0.3400918840523413  0.6955806663620081 0.829343331792612 -0.429140473648113  0.7577552661455027 0.6779093217819596 -0.1086323982351653  0.9092927595716991 0.8360853336671894 -0.2984444117297587  0.2598069211373117 -0.6627931504171131 -0.3175951070732924  0.1764099108743622 -0.8120348674137512 -0.1718130402549574  0.3997599759778838 -0.7545520996465095 -0.160404821653467  0.2226756839645508 -0.7073355731667365 -0.02210405772723709  0 0.3584022064076389 0.3471384433363549  0.156219818557485 0.3681990695396501 0.544612835542747  0 0.2183570659652789 0.4494716717761347  0.231673397548859 0.2888331680572713 0.3989257253052388  1.654861426338621 -0.2478449385455452 -0.06559739536694574  1.428350129602535 -0.1115590829296363 -0.09670693874748981  1.47153404734189 -0.05397042629357812 -0.03559554145352491  1.692529569909899 -0.1112403810512433 -0.2155045758308118  0.6043587999831042 -0.4258877923435302 -0.1637909996322506  0.6956465150978134 -0.4831009610867857 -0.4710971354434343  0.5544405621623107 -0.2427987236227395 -0.3955115419701227  0 -0.4802903493566127 0.1368959947787141  0 -0.7302700985569437 0.09286428021977672  0.1926808816194057 -0.6139415882032969 0.2542662684407305  0 -0.6648512623073015 0.3234225162635865  0.2468218893148968 -0.9514410968355673 -0.2772800963218767  0.2161236652421403 -0.9865572864454526 -0.112821630759336  0.7040807678965115 0.03144525423153868 -0.6784996553169467  0.6049865433828723 -0.09298800456506828 -0.9469011811091913  0.6771532227361217 0.1339387063677078 -0.9301296699811332  0.8211634938249786 -0.0614948596176802 -0.9069759893778435  1.036464561655427 0.07803635001225265 -0.8480026857180265  1.047382312232843 0.1449735934663914 -0.5834636095260999  0.847977007252553 0.2190842168098666 -0.6515780325598419  0.9673540972414912 -0.09218333403450402 -0.6314877750258698  0.1654630623866923 -0.7891482550794858 0.1754039241458947  0.8065091973842723 0.8996210807451531 -0.1516398615176273  0.9689115062321594 0.8697371324164864 -0.05737816468989729  0 -0.05224970938185564 0.7383018464539186  0 0.152057173948395 0.9883716984394171  0 -0.02181779437745626 0.9992217843736096  0.1480076500600712 -0.04226556988656546 0.8228748951508928  0.3570119558679766 -0.3875673443422485 0.6283811022673187  0.3032127927073427 -0.27609906509396 0.947385211707312  0.3710752335953543 -0.1597222693377068 0.7268486788309733  0.1596979455818125 -0.2274471135455735 0.7803051869954362  1.383661570440923 0.3500806804477891 -0.3732923251768873  1.466985613337009 0.1703829661173299 -0.3704672574792687  1.339191945049393 0.1603992931247615 -0.1392787093071194  1.218793485220007 0.1524777818547855 -0.2381940101844883  1.602030729744447 -0.5096923759111893 0.3039517603136516  0.2819554713663738 0.3978050956554593 0.9044496162677476  0.4858574754451384 0.2185511741074815 0.9441265533577465  0.3009349333273584 0.2245304454724337 0.9612324617992346  0.379728425704766 0.280606621983304 0.6665473761657372  1.444127185672022 0.1075723840985631 0.06057743607179902  1.378055437130003 0.08638063566135351 0.1627644389880674  1.533532002695516 0.2881113291306691 0.2226708993650882  1.356915764058502 0.1947065627274188 0.05292547050348874  0.9249051061462799 -0.02602338380190757 -0.3890518287049182  0.9512388581902265 -0.191188988513543 -0.3322379378462166  1.135906844855498 -0.1032642586232273 -0.3097927758696814  1.881364268925326 -0.140513086430453 0.3033057710900302  1.934322816827055 -0.05337530921901619 0.226075258562982  1.877213964533651 -0.2395345478348945 0.2224375002219985  1.735446578002003 -0.1851048010644701 0.1003449960561909  1.186577623012013 -0.6419807307222345 0.4790354508382345  1.033837735191197 -0.8226358658489163 0.2224324767312418  1.220110330933713 0.5579069237118678 -0.1384241073880815  1.202641783759364 0.7660089775647176 -0.2059219350323402  1.348204362088659 0.7291701336566525 -0.08553858199864187  1.373890877408544 0.643443481897465 -0.3295312840141351  0.8889403608854015 0.3440656474620377 0.202206313611441  0.7633070877744067 0.4829563714339042 0.4609914933946992  0.6074025488328552 0.3980824031539547 0.2202074157880716  0.8498411362142491 0.2538314141398708 0.3183972385314329  1.906971030501883 -0.02924262873585302 -0.2925304055025031  1.917841471920854 0.1280070835989337 -0.2332969757870052  1.977100064565325 0.03461277913397159 -0.1242052986087955  0.3803691808866855 -0.3355579543064399 0.3465621272107741  0.230692984353059 -0.2010076006014083 0.4497433381602904  0.64730757425909 0.3193924789905956 0.6430219874668933  0.5312493112787571 0.3869819773062052 0.88013158366127  0.1981178548262078 -0.08266711518446004 0.4878219796120337  0.1507883552693025 -0.06619623858581572 0.653824196075696  0.3173745720928878 -0.03479593819612045 0.486488455054065  0.2407519661948721 -0.2942799243084049 -0.6679877304763879  0.1447181131051986 -0.5563999954157572 -0.5926523225276602  0.2230025032730146 -0.5510695149780613 -0.8248711742736513  0.4209850149827287 -0.4440580800016051 -0.5525257008565216  0.1716153851630315 -0.6666872237464663 0.5373944942519072  0.2368004460370194 -0.5856959765217175 0.7985771930839038  0.1929790441535802 -0.7172143285528213 0.6867043074441012  0.3361270406401012 -0.7109442361065206 0.6808248927354941  1.231410932483969 -0.2849146919313793 0.4605665905528151  1.110789378543992 -0.5894825827383308 -0.1067217944497213  0.8408046771696551 0.3497636183210086 0.8330429381184914  1.142942431521951 -0.2180429942377705 -0.234249801634715  1.076847482432394 -0.3421567079452609 -0.5159050543339727  0 -0.4042503680362676 0.2927297205034136  0.9376478613173151 0.301269473405784 0.577571779432505  1.104332712259922 0.3987677063979381 0.5106339932066641  0.9831612809725235 0.5290948589007964 0.3884115874044889  1.178465479798848 0.6477217256402028 -0.4758816668598858  0.9929652204741933 0.4334281188487362 -0.4635541053406589  1.261911899573236 0.4897003834983976 -0.596028440710165  1.207759715786344 0.4238689013699606 -0.3198509399978258  0.1481472324300359 0.5739240544778232 -0.2790540507606966  0.2546555330241972 0.4419467201837363 -0.2146549363952016  0.2967718881738725 0.5745374608476215 -0.4594495357992309  0.2393835589042319 0.7062628630168708 -0.2503816715840821  0.2282246281134045 -0.1080099340663203 0.9865598892110472  0.4178442724260187 -0.1245374237060022 0.9684717349810656  0.3881404830163965 0.06411321972342053 0.9776678414861761  0 -0.9797478924171443 -0.1948604103628404  0.3426893074645813 -0.6305825071524406 -0.5053249099733295  0.5224124653367972 -0.6441468842677944 -0.3200369093567181  0.3978795981623498 -0.3978389693554893 -0.2691547580651357  0 0.4042503686430302 -0.2927297209337942  0.1715523702503297 0.4856012358052686 -0.4114946992370639  0.3285090128755508 0.4726788468012185 0.1185060457564433  0.4000997538361018 0.7274334460394527 -0.05524970377357666  0.1938275052163325 0.6938988075495152 0.03268211754021733  0.3539311094273428 0.8110411613105711 0.1428620220339987  0 0.9992217844664394 0.02181779438076782  0 0.9797478924229182 0.1948604103703783  0.7981036710574224 -0.282491452577968
[...]
<PointData  Vectors="state-0"> 
<DataArray  type="Float64"  Name="state-0"  NumberOfComponents="3" format="ascii">0.0000000000000000e+00 1.6265785043293662e-01 2.0454391071780390e-01  6.2757723999474517e-03 6.3618535592828165e-02 1.5693030007049794e-01  -7.0671854176448609e-05 1.3607488036006030e-01 1.2168410962854917e-01  1.4409159298855100e-02 2.2557294992470677e-02 1.7818409524448195e-01  0.0000000000000000e+00 -4.0024562798392227e-02 -1.5606580447646629e-01  0.0000000000000000e+00 5.6250978921950093e-02 -1.4810329737771125e-01  0.0000000000000000e+00 1.2106584347195750e-02 -1.6743969967064976e-01  -3.5349492443891831e-04 -9.1929875255124284e-03 -1.6138443079148398e-01  3.2685162365921526e-02 -1.3419626731616879e-01 -2.1834003144842760e-02  3.8592941104859169e-02 -1.1945240523718284e-01 -8.3010603757946288e-03  2.5974221431090225e-02 -2.7698902744959359e-02 6.1907435577840383e-02  3.7197615152626498e-02 -1.1405592537565055e-01 -6.2715094529585999e-02  -1.8500630014714043e-03 5.9300355439006767e-02 1.3124021555980570e-01  0.0000000000000000e+00 7.6851868460032474e-02 1.0618887170961072e-01  1.1092394063791061e-03 4.8479337620419144e-02 1.1661678067700182e-01  4.6927467996859401e-03 7.9436600154418308e-02 7.2003377537122007e-02  1.1499440627125700e-02 -1.1114804618334062e-02 1.5352581236061980e-01  0.0000000000000000e+00 4.0820800945213287e-02 6.3061905882487612e-02  1.3417382403823093e-02 2.6732258043542092e-02 7.0869276237277679e-02  1.6632646791348946e-02 2.8298243633329664e-02 5.7652009439611372e-02  2.4697906066614501e-02 6.1687567911272320e-02 5.5825054203385543e-02  3.0440785360360118e-02 4.1709890662738940e-02 5.2985411918760571e-02  1.3411674728069638e-03 -2.0123644262137774e-03 3.7230616920107269e-02  3.6491284302506317e-02 1.4806134385025033e-02 8.2853719275186768e-02  2.6993322938042543e-02 5.6149198893654861e-03 7.7477666552514687e-02  1.1196245124070001e-01 -7.1324639429863473e-02 1.2582605386896961e-02  4.1321554658810933e-02 -5.6449845632425145e-02 -4.5500627776207440e-02  1.4837295371633563e-01 2.7175445271509269e-02 -1.6089303226332459e-02  5.1362931636148731e-02 -3.3323619691308481e-02 -1.3667985594918126e-02  4.8551425378462208e-02 3.3631901036641453e-02 -3.7012329170826586e-02  2.1251054969653758e-02 -4.8333746058008040e-02 -1.2819687538575100e-01  3.7615306342280497e-02 -8.2904597460396218e-02 -9.9330263212341202e-02  2.4706749437515003e-02 -6.3731097926121583e-02 -5.8790716962010305e-03  4.8000428582099373e-02 -5.7153871595059573e-02 -1.0567385334090730e-01  1.5160376429680147e-02 -4.1580471328789614e-02 8.6182391203488140e-02  1.4186336725726501e-02 8.1836374204034903e-03 5.7051950435977550e-02  1.4411381091677111e-02 -5.5554220575427440e-03 4.7146565007329430e-02  2.3323016516068926e-02 2.8158064329880449e-02 6.6384883789329135e-02  -7.0919793223185139e-03 6.4929408462912766e-03 3.3273895427086121e-02  -1.4296756921382788e-03 1.3436916601948059e-02 3.4775684631128789e-02  0.0000000000000000e+00 -1.5512356851500272e-01 -2.8989378964441974e-02  7.6915217961141839e-03 -8.9316204818339712e-02 2.6997088876398470e-02  4.2385381156340805e-03 -1.2198131483545303e-01 -1.6649278820321436e-02  2.8366597835114611e-03 -1.5958486841810013e-01 4.3385155095874109e-02  1.0355225367244423e-02 -5.0125163648815398e-02 3.3566814148175543e-03  1.1403916582124541e-02 -4.0432141018917477e-02 3.0129787243762557e-02  9.7729296066990674e-03 -3.5907371834081742e-02 2.5560157554186395e-02  2.5612744548513821e-02 -6.2714090686829968e-02 2.7042742516135265e-02  1.8267428892273885e-02 6.6165520637996161e-02 -4.8042036508135821e-02  8.5437841178507331e-03 4.0085847717663416e-02 -1.7871718451634575e-02  1.6657269076397856e-02 6.6900693097933395e-02 -2.2259826064794520e-02  6.2183568923460943e-04 4.7018101494832223e-02 -1.3922007353325020e-02  1.8697787256064678e-03 -3.5408351771942417e-02 -1.1723565666680402e-01  5.8728518390458607e-03 -6.8054866372605216e-02 -8.8179853210322637e-02  1.1422800855630702e-02 -6.3055533109152379e-02 -6.5961855353454377e-02  4.5839444410628863e-03 -8.4692661320856968e-02 -1.0806541585287589e-01  0.0000000000000000e+00 3.8655301944670581e-02 1.9004529387709848e-01  5.1193653447467111e-03 -3.9030291884717315e-02 1.5957163677971681e-01  0.0000000000000000e+00 -1.5410281961878153e-02 1.6316004577441431e-01  1.1581732674188222e-02 1.3998901549000532e-02 1.6883831714742412e-01  4.5934769491836877e-02 -4.5308240971775118e-02 4.3215915861394075e-02  1.1402633998290192e-01 -4.0423488412505891e-02 -7.4847187014067770e-02  1.8453435729866866e-01 -2.3775046466183863e-02 -3.8922932478798120e-02  4.2101253465170178e-02 -6.4161412028228032e-02 1.6690487835781354e-02  1.6667459344052279e-02 -8.7104414297852054e-02 -1.2575168168011905e-01  1.5985010834338714e-02 -3.6575376914883821e-02 -7.3576860783643366e-02  1.1361769505940240e-02 3.6347775709628586e-03 -1.6117240424227086e-01  0.0000000000000000e+00 -1.5375311668044181e-01 -3.9576763590736745e-02  0.0000000000000000e+00 -9.9760147076854058e-02 -1.2044327030611389e-01  1.3681343298201676e-04 -1.3665633251243112e-01 -6.8993228323536562e-02  0.0000000000000000e+00 -1.3637027201038943e-01 -8.2315471918361846e-02  6.5133367726167247e-03 -5.8779925989353082e-02 -3.4389205971870340e-02  7.4068015471266723e-03 -4.8440117089687318e-02 -1.6657612294987769e-02  1.6557939266204736e-02 3.0481716989972690e-02 -7.7662739055851984e-02  1.5682464775216579e-02 5.3240470527529346e-05 -5.7471478747190052e-02  7.6674400985122662e-03 1.8568426806317317e-02 -5.4445826468824225e-02  1.8069810597838284e-02 -3.5309184549231539e-03 -5.3163548511145416e-02  3.2711682649445230e-03 1.3332296709225513e-03 -3.3032628553238054e-02  2.2348468648782115e-02 -1.7102315384964414e-02 -6.4475919058524914e-02  2.7972123947049066e-02 8.7199799181913711e-03 -6.9231779229464052e-02  2.4956205050748415e-02 -3.3354895689252304e-02 -5.2959826212203492e-02  2.6751483034495797e-03 -9.9194181254765756e-02 -5.1539813763997855e-02  -1.8187812562976131e-03 4.9533030208094103e-02 -4.8169895142745160e-03  3.2715871378575720e-03 5.1424954338166698e-02 -5.8265944420922856e-03  0.0000000000000000e+00 -1.3571516494126984e-01 8.2917189419518089e-02  0.0000000000000000e+00 -1.0051709913254063e-02 5.2578444184990546e-02  0.0000000000000000e+00 -2.3692490449018149e-02 6.4789808333899676e-02  5.5303724021655834e-03 -9.9333455875337789e-02 9.0632530225494945e-02  1.6991401143532210e-02 -1.0158930215754153e-01 3.3211559107635798e-02  9.7220649553875875e-03 -4.2416499619216029e-02 5.4957202786606235e-02  1.2705942981299500e-02 -7.9737008742679819e-02 6.4620957845179947e-02  7.3093253233685153e-03 -9.9118768070403790e-02 4.7936090008089766e-02  3.8926873608347255e-02 -5.9685615927109796e-02 -6.8096460165485581e-02  3.0670186739187658e-02 -3.9554198748485571e-02 -5.0570403613873632e-02  8.2642185854169450e-02 6.5291672011769206e-02 -4.0969410303042582e-02  6.1402402484909864e-02 7.6055263642807541e-02 -6.1415764793187208e-02  7.7580501063105149e-03 -1.4843061342160551e-02 4.0358388612263867e-02  9.2260313011224577e-03 8.0231430536892700e-03 6.5201687255377713e-02  8.5081005483292164e-03 -4.8336755287412035e-03 5.2323663993906172e-02  1.3398058685953947e-02 -4.9373642078303238e-03 6.4736730187218108e-02  1.2182047521880082e-02 -3.9113773211749997e-02 1.1353066147868360e-01  1.2523833523453373e-01 2.9767226591612930e-02 2.4197443725138983e-02  1.0822965499792080e-01 1.9375741276572002e-03 5.3944149822751093e-02  2.6116455581250315e-02 5.7799391831347989e-02 -3.8732876810568743e-02  9.1113717764849403e-02 5.7642375232231868e-02 3.3307218500155507e-02  3.3519220718810756e-02 5.1845255148844978e-02 -1.1419112411645524e-01  2.7631056098423739e-02 -5.2400420322961530e-03 -1.2760101147124778e-01  4.7901084109434069e-02 5.3050535551841492e-03 -1.1033682970639881e-01  5.7237931108022702e-05 6.7434812162178968e-03 2.9058620463480206e-02  1.7491910879354120e-02 5.5911687830806616e-03 1.8496471837951649e-02  -2.8871689177511124e-03 7.2617221591703782e-03 2.4458166971481492e-02  8.5742887078547501e-04 2.6713990508592578e-02 2.6110010491780012e-02  1.7918767788861923e-03 -2.2021718557106877e-02 3.1903003949001148e-02  9.3667009529186853e-03 -4.5271472605306756e-02 1.4993625054557320e-02  3.5342799432451465e-02 8.7847907891479664e-03 -8.6087347653114599e-02  -7.6780407280420326e-03 3.2581105914894833e-02 -2.0019878739810211e-02  -4.5338699537210182e-03 3.3412261976317727e-02 -3.1853959498336901e-02  -6.9467438680436821e-03 2.8796106865243157e-02 -2.5681824265500808e-02  3.3577248229372927e-02 6.9003438907902087e-02 1.0979929317071106e-01  1.2230969645372115e-02 5.0950696638680286e-02 5.3107146432582637e-02  1.3725529981250179e-02 7.0416626776750466e-02 1.2540827154081097e-01  2.9867552075323166e-02 2.3238415789190316e-02 1.2778542550298536e-01  1.5868256696600854e-02 -4.3999774026176122e-02 -2.3258298347584094e-02  1.7608270924916153e-02 -3.6339752041679871e-02 -1.8640083101658409e-02  2.1202045920392869e-02 -2.8185019864971936e-02 -1.3894296761213620e-02  7.3709326830240238e-03 -1.5427256186189389e-01 4.0772853913878013e-02  4.8969807269461599e-03 -1.3542002504805034e-01 9.9686438057950938e-02  1.4635714302960488e-02 1.9021390595852852e-02 7.6181738459429674e-02  6.4645284854205655e-03 1.1350644400627068e-02 6.3395360626903000e-02  2.5055726410475447e-03 -1.0189616505063079e-01 1.2357125333978217e-01  2.1577230669178860e-03 -1.2515036962716869e-01 9.2386942188919019e-02  6.8275715341048768e-03 -9.1614355541265860e-02 1.3315729991798894e-01  2.1234683213749274e-03 5.0826061264321216e-02 -1.2021912625553319e-01  7.7209174033994517e-03 2.5786444681141974e-04 -1.1937044178578318e-01  1.3156772893837990e-02 -2.5937452882228731e-02 -4.9866743597585174e-02  5.0346768371747896e-03 -1.0151345869494890e-03 -1.1515571981890366e-01  5.0759472139127433e-03 -9.4846352678829474e-02 -5.0978735236714614e-03  4.4966949369581941e-03 -5.4361643762436504e-02 3.5107404606313217e-02  8.2760105784152084e-03 -6.5743407738458867e-02 3.4107297026703384e-02  6.9840198592373386e-03 -4.9243592223859524e-02 2.2020284301267928e-02  2.7936943048910895e-02 3.4734637700820310e-02 6.9553200112171462e-02  3.0402009152288256e-02 -5.2065487352474446e-02 4.9276139292845154e-02  1.3533228559061359e-02 1.4070412264100158e-02 3.9698988149064349e-02  5.2580811496145997e-02 -3.0717724179644301e-02 -9.6394482316056351e-02  2.9034422120125511e-02 -6.4972983188391661e-02 -1.6625879237982800e-02  0.0000000000000000e+00 -1.6286600269278997e-01 1.6036803283789432e-02  2.0373997738815097e-02 6.1257518852925484e-02 2.5935762631196423e-02  3.6497208355546804e-02 9.1920466690005989e-02 -2.8348615990999488e-02  2.5173472712299735e-02 7.5089065725949478e-02 -1.7531444845072637e-02  -2.8157003853753375e-03 2.9058666291883150e-02 -3.1353188835986902e-02  2.6752490966714129e-02 1.5941784811354553e-02 -6.7744884324551502e-02  2.7685964600945683e-03 1.9349501703848120e-02 -3.6763978706877656e-02  2.3783407821978887e-02 1.7397965347083016e-02 -6.7827438141310356e-02  3.1022473752350364e-03 1.5517672035421723e-01 4.7489349535915638e-02  5.0714241674341010e-03 1.6848904989106553e-01 8.1146122481883347e-03  5.0738687193113497e-03 1.2224322685039424e-01 -2.8279693879110441e-03  8.8009649058316142e-03 1.1881221079898516e-01 4.1955506550629795e-02  1.2351899326441679e-02 -3.1476309110704238e-02 6.5001543990410013e-02  1.3644474944798316e-02 -2.7363566542923847e-02 5.4762240320690179e-02  8.9197128423074146e-03 -1.7223576128585622e-02 5.8620569662445249e-02  0.0000000000000000e+00 -6.5580381848910130e-02 -2.2639056511212428e-02  1.4438587086048659e-02 -2.6230224739071904e-02 -8.6888402110972207e-02  1.3780902722889999e-02 -5.1839595499964038e-02 -8.0596858601534774e-02  6.5554375778085995e-03 -6.3172095431560923e-02 -1.5398181271356126e-01  0.0000000000000000e+00 1.6726788684195409e-01 -1.9387274924202474e-02  -2.3070454382563064e-03 1.6223344722685029e-01 1.1783170661365994e-02  1.6106367969362524e-03 1.2385522090292103e-01 1.2566015382445272e-01  7.5124381937058948e-03 9.1735589069350754e-02 3.8607484319981983e-02  1.5651420274689361e-02 1.1511640111990620e-01 9.6033252832841642e-02  7.2284319520187308e-03 3.9564411368433854e-02 5.3041965651109378e-02  0.0000000000000000e+00 1.0733897516291686e-01 2.6628199114416901e-02  0.0000000000000000e+00 1.0104896800826610e-01 2.6777138894506752e-02  2.6353272001442024e-02 -2.6129988698359294e-02 -6.7854492507327377e-02  1.0818455274521455e-02 -1.9640521402937317e-02 -3.7286104430849398e-02  9.8134976776014723e-03 -4.0811517953707821e-03 -4.6422718974104354e-02  1.3000439363086593e-02 -2.7041125707925370e-02 -3.8625519990286884e-02  -9.3000079867190883e-04 5.7352227977110707e-03 -3.2142317951604785e-02  2.5931207758941280e-04 -1.1625178723087774e-02 -4.4812921342989649e-02  3.9329284844549270e-02 -2.8811406251341182e-02 -6.5885707306895538e-02  4.6311263449803498e-02 -1.0614722233765457e-01 4.7315423359124247e-02  1.9044311552834023e-02 3.8700370127298260e-02 5.9359127617068110e-02  6.1414655589453179e-02 -4.1422769884007143e-02 8.5812823095334556e-02  9.0994090776615258e-03 3.4923593208517942e-02 -4.5345242472226856e-02  1.0044642018487494e-02 5.3551125033139191e-02 -4.2626781525943895e-02  7.3984377306213238e-03 8.8984527394674509e-02 -5.1117806934553124e-02  1.7064038881449941e-02 3.9646689128878233e-02 -5.2893990104431181e-02  0.0000000000000000e+00 6.1147801795356400e-03 -1.6020517739407766e-01  2.3737833071195330e-04 -9.2992087837839629e-03 -1.5542361412974159e-01  3.6430714668279657e-02 -7.4387864122914968e-02 1.0460942336943323e-01  2.4597850979376612e-02 6.1718595302989412e-02 3.3921816183832595e-02  1.6266531843520948e-02 -2.3342227172727163e-02 7.4763185216535327e-02  2.6911890439408139e-02 4.5237034435777021e-02 6.4319682889982313e-02  8.3595023288285872e-03 -3.6578638915672257e-02 -6.6305197214620859e-03  3.3221281559777205e-03 -3.5919752104898998e-02 -7.5224271260042573e-03  2.2088004992758385e-03 -3.2235806318861082e-02 -6.7076224164436182e-03  2.4991856711072871e-02 -7.0568110246472818e-02 3.6148506405698465e-02  4.4751979577345186e-03 -8.4889917653364969e-02 9.8237791251893025e-02  2.2440357187784227e-02 -5.3607053829675885e-02 5.1042360944881779e-02  3.1284565987777839e-02 -3.0050554100345688e-03 6.6284677771364042e-02  1.9150295247627291e-02 -6.2339360507670236e-02 5.7276262074646533e-02  2.0373129712990511e-02 -4.2112731051693011e-02 4.4539383133375535e-02  3.8081372391872031e-03 4.3649728208309230e-02 -1.5150305242128959e-01  5.7914800078543178e-03 3.4645844617950998e-02 -9.7000288984217392e-02  -2.2551237876989039e-03 4.7152432914050794e-02 -1.5555729112423480e-01  1.1253816757169233e-03 7.9776751593751374e-02 -1.4249687025632962e-01  5.4454914048204890e-03 -4.2230500295804746e-02 1.6378022949193982e-01  1.3337944993409477e-02 1.5164024609556391e-02 1.6250215286682160e-01  2.4515866918304409e-02 6.6272091231385499e-02 -4.4530492896645936e-02  -4.2748264442612588e-04 2.9991579045661885e-02 2.2760535327800246e-03  4.0718678675031472e-04 4.5972034603383456e-02 -9.5678164855538886e-03  4.7100819151603662e-02 7.5762559719989712e-04 9.2809099927369160e-02  6.4940457414689153e-03 -3.7382640177479484e-02 3.1395580822067601e-02  7.1259586665681140e-03 -3.0890631147055644e-02 2.0410271048985667e-02  3.2414065254802650e-02 -5.0557054105546020e-02 6.3968780900169303e-02  1.3899283882947988e-01 -2.2298126588971515e-02 2.7122907074002767e-02  2.7088338792734340e-02 3.6998561012764310e-02 2.3482963782729675e-02  4.0495590241764599e-02 -4.2224462244768064e-02 -6.8929602196084988e-02  4.5659298529227801e-02 1.0336426465686882e-01 -5.7042475594274417e-02  2.0115311595215367e-02 -2.1839683021721724e-02 6.5609802864530650e-02  7.9633662752423926e-03 -2.7046967320614738e-02 4.8688958237801415e-02  -8.8222239553680632e-04 -3.2831701747604448e-02 4.5700992901104492e-02  2.2850839436464411e-02 4.5210131656431382e-02 -5.3554351807989509e-02  8.8150465931631939e-03 -7.7452150787263141e-02 -2.0588429392632158e-02  1.0543782176840558e-02 -7.9012852882269238e-02 -4.1705372710149936e-02  2.5199503165743157e-02 7.1398737719831989e-02 -1.1076256441809696e-02  5.6358685857166961e-03 4.0327850594231163e-02 2.9447451118665112e-03  1.3378376522275274e-02 -3.9367869123600976e-02 -3.4020329532653437e-02  7.4761505718977425e-02 -8.7092751832262380e-02 -1.4632063410859411e-02  6.0339252992792490e-02 -1.0516645327526158e-01 1.7092569551681355e-02  6.6006253085186622e-02 -7.9806261341070689e-02 4.3247668767599307e-02  1.0071881502075275e-02 6.5212792495019350e-02 3.5762770641205303e-02  -1.8225734611550175e-04 4.5366632982152925e-02 4.5107407599784710e-02  -8.2492897097532776e-04 4.5150750569720052e-02 3.1944381522888400e-02  2.5474604521136233e-02 -1.1493091917418155e-01 8.5034596880084440e-02  2.4053052084486506e-02 -1.6804545486316897e-02 7.0466341190990545e-02  8.0967251216847811e-03 1.2459149638115357e-02 8.0858309226964117e-02  1.7234197043085354e-03 3.2951499013404245e-02 4.4384784945924599e-02  9.2992681411751665e-03 3.6636546199468115e-02 7.3596176329967580e-02  1.3185531821057459e-03 4.6391282117831736e-02 -2.5435940746536496e-02  1.4588760145824783e-01 -5.9776763682679819e-02 -1.5551588996853327e-02  2.8852122920393276e-02 -6.1285397852213409e-02 1.7424123267813819e-02  8.3388788518314223e-03 -5.1267801244833162e-02 2.9827409687380262e-03  1.0597644092004140e-02 -4.0071447587967497e-02 1.5063348548183299e-03  5.4556638891951476e-03 -2.4312439667682678e-02 1.3345862485920240e-02  2.3687257219818731e-03 1.6458415470841667e-01 -4.3045840283719661e-02  7.1530579217324239e-03 1.6109766100735093e-01 -4.5947813625455254e-02  2.3110874596605404e-03 1.1680672691466527e-01 -2.7915358477357901e-02  5.9017314980150826e-03 -4.9146057033730609e-02 1.1607443394549537e-01  4.8914290049125496e-03 -1.4450833595076298e-01 -6.5892533252242536e-02  0.0000000000000000e+00 -1.4380875296211959e-01 7.6546143482394496e-02  6.8297728734536857e-03 -4.7656894510772166e-02 -4.5277771105474041e-02  4.8074792586564417e-03 -2.5377453735041817e-02 -1.2382452014130939e-01  2.3867145900223409e-02 -2.7014509806396542e-02 1.4441402551210483e-01  1.9015316106218195e-02 -7.2322415447704333e-02 -3.4786273456277196e-02  8.5058913640978732e-03 -3.7691548571505279e-02 -8.4691240834198177e-03  4.5394346976348390e-03 3.4879773646080928e-02 2.1467614345751545e-02  -1.2512535421018067e-03 2.5204580424049092e-02 1.6274483644512772e-02  7.8693719975906368e-03 -4.5984732266946188e-02 -3.1097072384559075e-02  1.0591165698448415e-02 -3.8144242621711059e-02 -2.2902412178424966e-02  2.9345131197216302e-02 -6.5299173170904376e-02 -3.1952243956149415e-02  3.7448566318019155e-02 -5.9824583271829643e-02 -2.7163777686811587e-02  5.7548203121708157e-02 3.2477758128850655e-02 -8.6815453311521129e-02  0.0000000000000000e+00 1.3906468334954372e-01 6.1397055094599882e-02  0.0000000000000000e+00 1.7534189880670217e-01 3.2934926715437844e-02  3.7634340645103521e-02 8.1356715593344300e-03 -7.2671022953870817e-02  3.7607523096925041e-02 5.2863207221530650e-02 -7.5150079146044185e-02  3.8199140502741657e-03 3.4578263031221794e-02 -3.9353984216947996e-02  4.7452599076542208e-03 8.9235827992211983e-02 -7.9347239894182617e-02  3.0200675518046078e-02 -1.3455095979105747e-01 2.7672153408612673e-02  2.4553039157789214e-02 -2.4964865322282127e-02 5.9763387822771352e-02  -5.0559349937125513e-03 3.8575799066145763e-02 -1.3964033676552027e-02  2.0632219862400526e-04 -2.3819167197129697e-02 3.2372018169639583e-02  -2.9540540751320371e-03 3.1114392915425535e-02 2.9320570279099338e-02  -3.9169624760046623e-03 2.0336873870382775e-02 3.4023722951634784e-02  -3.1432780003643229e-03 3.6505051865246711e-02 2.5179498234221612e-02  2.8077133052180913e-02 8.9539233559357709e-02 3.0389701533023818e-02  1.0950357628643143e-01 -7.3369689784857542e-02 -4.6063330486173011e-02  2.2833460511309963e-02 -7.2710916036770587e-02 4.4886725257361412e-02  2.1355066715210449e-02 -2.1114827430550001e-02 -6.3056331186616313e-02  1.8425516776487016e-02 -1.7986467140403799e-02 -5.3