<?xml version="1.0"?>
<VTKFile type="UnstructuredGrid"  version="0.1"  >
<UnstructuredGrid>
<Piece  NumberOfPoints="571" NumberOfCells="2204">
<Points>
<DataArray  type="Float64"  NumberOfComponents="3"  format="ascii">0 0.4557658422360288 0.2037239481916731  0.215342302085561 0.4088165324138145 0.276607389891164  0.1898111423118776 0.4804099814266372 0.120481987618956  0.1488218331026943 0.5456085533310675 0.3580349126526996  0 -0.3584022067626158 -0.34713844364978  0 -0.4343749685821028 -0.5981026889621334  0 -0.2183570664703646 -0.4494716729159423  0.2262183546861321 -0.2890645186499676 -0.3992423335076322  0.8236654683860651 -0.3854091937706139 0.1520784617307017  0.9611575557215211 -0.3381064906313395 0.1705616282461981  1.101237692407842 -0.5682744000940003 0.1641358915984834  0.8808535886157749 -0.4013915609715027 0.01807349879338826  0.2768592740765526 0.6713354132414016 0.2942300696330516  0 0.7174485391010063 0.1810648686359916  0.1358245596864188 0.7170315960464521 0.3854999039085954  0.1805154614533415 0.8310021267322617 0.1686271154597134  0.2260044654083829 0.5284200423715826 0.5113804949326196  0 0.6247318086192194 0.7784334564044499  0.2234432804039685 0.5510573463749909 0.8248530136698899  0.2051937258140014 0.6861590858235175 0.7166328779599186  1.436121479967118 -0.1618100638832992 0.3933467488268004  1.607502195396375 -0.1748143324203481 0.2469448255435848  1.541913529235868 -0.4300925108691208 0.4574853456310987  1.346433659029038 -0.4270520351658764 0.2586315063847239  1.542556911883307 -0.3473583885216562 0.1166196836262704  1.396607295547186 -0.1386793780546898 0.1050203081845187  1.68644067764384 0.09489426693876185 -0.2106786860728978  1.481704577030881 0.04548157799178949 -0.0120835870758516  1.738705877114763 -0.03194054357726368 -0.02005955530575017  1.674236160379273 0.2085240449466953 0.0274629254215289  0.8037946419929682 -0.3370944910749437 -0.2466343060504287  0.9362642156920464 -0.3704091732671893 -0.1147956977516422  0.9857831417878248 -0.5299008476462513 -0.3433600658162904  1.045221004397578 -0.3025921429816227 -0.187001915832861  0.5194649326683753 0.03965186697137328 0.7329698387380782  0.6793945283207881 0.2535408389821024 0.9037481344226557  0.7164077726675464 0.05761331572313 0.9294704380642947  0.7957068750075035 0.1527677362072418 0.6682504641370516  1.627668761131291 -0.2749473348912957 0.5032979280239953  1.441039914988583 -0.3039695720636669 0.6201421578283288  0 -0.5157481316615737 0.5311596756682169  0.1752388498574636 -0.4274470340138514 0.6964420531097035  0.2745817512199675 -0.586235345398221 0.4466848625012881  0.2123538086145217 -0.3435876563839098 0.3547882322077363  0.6886953441565045 -0.8994645218821888 0.2614554791402248  0.7925803761983674 -0.7358913891656684 0.5443993262429085  0.9683407667895547 -0.7545578665694681 0.4378949691425725  0.7829392834966107 -0.6369054036577044 0.265784144462074  0.8049799187676107 0.5610888404572143 -0.3400918840523413  0.6955806663620081 0.829343331792612 -0.429140473648113  0.7577552661455027 0.6779093217819596 -0.1086323982351653  0.9092927595716991 0.8360853336671894 -0.2984444117297587  0.2598069211373117 -0.6627931504171131 -0.3175951070732924  0.1764099108743622 -0.8120348674137512 -0.1718130402549574  0.3997599759778838 -0.7545520996465095 -0.160404821653467  0.2226756839645508 -0.7073355731667365 -0.02210405772723709  0 0.3584022064076389 0.3471384433363549  0.156219818557485 0.3681990695396501 0.544612835542747  0 0.2183570659652789 0.4494716717761347  0.231673397548859 0.2888331680572713 0.3989257253052388  1.654861426338621 -0.2478449385455452 -0.06559739536694574  1.428350129602535 -0.1115590829296363 -0.09670693874748981  1.47153404734189 -0.05397042629357812 -0.03559554145352491  1.692529569909899 -0.1112403810512433 -0.2155045758308118  0.6043587999831042 -0.4258877923435302 -0.1637909996322506  0.6956465150978134 -0.4831009610867857 -0.4710971354434343  0.5544405621623107 -0.2427987236227395 -0.3955115419701227  0 -0.4802903493566127 0.1368959947787141  0 -0.7302700985569437 0.09286428021977672  0.1926808816194057 -0.6139415882032969 0.2542662684407305  0 -0.6648512623073015 0.3234225162635865  0.2468218893148968 -0.9514410968355673 -0.2772800963218767  0.2161236652421403 -0.9865572864454526 -0.112821630759336  0.7040807678965115 0.03144525423153868 -0.6784996553169467  0.6049865433828723 -0.09298800456506828 -0.9469011811091913  0.6771532227361217 0.1339387063677078 -0.9301296699811332  0.8211634938249786 -0.0614948596176802 -0.9069759893778435  1.036464561655427 0.07803635001225265 -0.8480026857180265  1.047382312232843 0.1449735934663914 -0.5834636095260999  0.847977007252553 0.2190842168098666 -0.6515780325598419  0.9673540972414912 -0.09218333403450402 -0.6314877750258698  0.1654630623866923 -0.7891482550794858 0.1754039241458947  0.8065091973842723 0.8996210807451531 -0.1516398615176273  0.9689115062321594 0.8697371324164864 -0.05737816468989729  0 -0.05224970938185564 0.7383018464539186  0 0.152057173948395 0.9883716984394171  0 -0.02181779437745626 0.9992217843736096  0.1480076500600712 -0.04226556988656546 0.8228748951508928  0.3570119558679766 -0.3875673443422485 0.6283811022673187  0.3032127927073427 -0.27609906509396 0.947385211707312  0.3710752335953543 -0.1597222693377068 0.7268486788309733  0.1596979455818125 -0.2274471135455735 0.7803051869954362  1.383661570440923 0.3500806804477891 -0.3732923251768873  1.466985613337009 0.1703829661173299 -0.3704672574792687  1.339191945049393 0.1603992931247615 -0.1392787093071194  1.218793485220007 0.1524777818547855 -0.2381940101844883  1.602030729744447 -0.5096923759111893 0.3039517603136516  0.2819554713663738 0.3978050956554593 0.9044496162677476  0.4858574754451384 0.2185511741074815 0.9441265533577465  0.3009349333273584 0.2245304454724337 0.9612324617992346  0.379728425704766 0.280606621983304 0.6665473761657372  1.444127185672022 0.1075723840985631 0.06057743607179902  1.378055437130003 0.08638063566135351 0.1627644389880674  1.533532002695516 0.2881113291306691 0.2226708993650882  1.356915764058502 0.1947065627274188 0.05292547050348874  0.9249051061462799 -0.02602338380190757 -0.3890518287049182  0.9512388581902265 -0.191188988513543 -0.3322379378462166  1.135906844855498 -0.1032642586232273 -0.3097927758696814  1.881364268925326 -0.140513086430453 0.3033057710900302  1.934322816827055 -0.05337530921901619 0.226075258562982  1.877213964533651 -0.2395345478348945 0.2224375002219985  1.735446578002003 -0.1851048010644701 0.1003449960561909  1.186577623012013 -0.6419807307222345 0.4790354508382345  1.033837735191197 -0.8226358658489163 0.2224324767312418  1.220110330933713 0.5579069237118678 -0.1384241073880815  1.202641783759364 0.7660089775647176 -0.2059219350323402  1.348204362088659 0.7291701336566525 -0.08553858199864187  1.373890877408544 0.643443481897465 -0.3295312840141351  0.8889403608854015 0.3440656474620377 0.202206313611441  0.7633070877744067 0.4829563714339042 0.4609914933946992  0.6074025488328552 0.3980824031539547 0.2202074157880716  0.8498411362142491 0.2538314141398708 0.3183972385314329  1.906971030501883 -0.02924262873585302 -0.2925304055025031  1.917841471920854 0.1280070835989337 -0.2332969757870052  1.977100064565325 0.03461277913397159 -0.1242052986087955  0.3803691808866855 -0.3355579543064399 0.3465621272107741  0.230692984353059 -0.2010076006014083 0.4497433381602904  0.64730757425909 0.3193924789905956 0.6430219874668933  0.5312493112787571 0.3869819773062052 0.88013158366127  0.1981178548262078 -0.08266711518446004 0.4878219796120337  0.1507883552693025 -0.06619623858581572 0.653824196075696  0.3173745720928878 -0.03479593819612045 0.486488455054065  0.2407519661948721 -0.2942799243084049 -0.6679877304763879  0.1447181131051986 -0.5563999954157572 -0.5926523225276602  0.2230025032730146 -0.5510695149780613 -0.8248711742736513  0.4209850149827287 -0.4440580800016051 -0.5525257008565216  0.1716153851630315 -0.6666872237464663 0.5373944942519072  0.2368004460370194 -0.5856959765217175 0.7985771930839038  0.1929790441535802 -0.7172143285528213 0.6867043074441012  0.3361270406401012 -0.7109442361065206 0.6808248927354941  1.231410932483969 -0.2849146919313793 0.4605665905528151  1.110789378543992 -0.5894825827383308 -0.1067217944497213  0.8408046771696551 0.3497636183210086 0.8330429381184914  1.142942431521951 -0.2180429942377705 -0.234249801634715  1.076847482432394 -0.3421567079452609 -0.5159050543339727  0 -0.4042503680362676 0.2927297205034136  0.9376478613173151 0.301269473405784 0.577571779432505  1.104332712259922 0.3987677063979381 0.5106339932066641  0.9831612809725235 0.5290948589007964 0.3884115874044889  1.178465479798848 0.6477217256402028 -0.4758816668598858  0.9929652204741933 0.4334281188487362 -0.4635541053406589  1.261911899573236 0.4897003834983976 -0.596028440710165  1.207759715786344 0.4238689013699606 -0.3198509399978258  0.1481472324300359 0.5739240544778232 -0.2790540507606966  0.2546555330241972 0.4419467201837363 -0.2146549363952016  0.2967718881738725 0.5745374608476215 -0.4594495357992309  0.2393835589042319 0.7062628630168708 -0.2503816715840821  0.2282246281134045 -0.1080099340663203 0.9865598892110472  0.4178442724260187 -0.1245374237060022 0.9684717349810656  0.3881404830163965 0.06411321972342053 0.9776678414861761  0 -0.9797478924171443 -0.1948604103628404  0.3426893074645813 -0.6305825071524406 -0.5053249099733295  0.5224124653367972 -0.6441468842677944 -0.3200369093567181  0.3978795981623498 -0.3978389693554893 -0.2691547580651357  0 0.4042503686430302 -0.2927297209337942  0.1715523702503297 0.4856012358052686 -0.4114946992370639  0.3285090128755508 0.4726788468012185 0.1185060457564433  0.4000997538361018 0.7274334460394527 -0.05524970377357666  0.1938275052163325 0.6938988075495152 0.03268211754021733  0.3539311094273428 0.8110411613105711 0.1428620220339987  0 0.9992217844664394 0.02181779438076782  0 0.9797478924229182 0.1948604103703783  0.7981036710574224 -0.282491452577968
[...]
<PointData  Vectors="state-0"> 
<DataArray  type="Float64"  Name="state-0"  NumberOfComponents="3" format="ascii">0.0000000000000000e+00 1.4375954710231720e-01 9.8198153505066652e-02  2.3478746361613545e-04 6.9406540915609688e-02 6.7513003790986612e-02  -1.9667557561366070e-03 1.0217859949982577e-01 3.2812029727725289e-02  4.3574253658470053e-03 4.6384774541020676e-02 8.0468264086548363e-02  0.0000000000000000e+00 -5.8644692216685994e-02 -6.8717249548069709e-02  0.0000000000000000e+00 2.7646263216379792e-04 -7.2251071859248964e-02  0.0000000000000000e+00 -3.5278755371402792e-02 -8.7366000722288936e-02  -3.1232480161456884e-03 -4.4417562971037654e-02 -7.7060079338061818e-02  8.8599488674689954e-03 -7.5473825568952144e-02 2.7815769120684238e-02  1.0503210718841142e-02 -6.4426721641170207e-02 3.1878726156908836e-02  1.4955657878545026e-02 -1.6529345768534445e-02 2.9154760530123225e-02  9.7287434628096324e-03 -7.4849775894596210e-02 9.6020326115149775e-04  -9.8253668923691806e-03 5.4532111800254329e-02 4.9004312217017072e-02  0.0000000000000000e+00 5.6587931256762099e-02 2.9857582206419202e-02  -3.6821281326348304e-03 5.0905982602809444e-02 5.7806999880031185e-02  2.5114380384837621e-03 5.2820689823204835e-02 2.1340437107081577e-02  3.4385950280676537e-03 1.9390481386060289e-02 7.8847790800119388e-02  0.0000000000000000e+00 2.7615734362232115e-02 4.2329052310610508e-02  7.8346411358368243e-03 1.7662897326683084e-02 4.6650960521623465e-02  9.2882837056878984e-03 1.7550581826220421e-02 3.5880855598465163e-02  1.3981883904448792e-02 2.0559305157029691e-02 2.3891370897098422e-02  1.5431100386856690e-02 1.0226486336392974e-02 1.8676418455625319e-02  4.8443481591696229e-03 -6.0435119638743559e-03 1.5354692828168589e-02  1.9077258206895296e-02 -1.3098741656221254e-04 3.1032917930249558e-02  1.4108571098177305e-02 -1.1885186639304455e-03 2.7867477671428019e-02  5.5323075564024757e-02 -4.2303499288688144e-02 3.2861233002262027e-02  8.5217808077732975e-03 -1.3940548873262244e-02 -4.8631052896514057e-03  7.4737152507667201e-02 1.8564104753974998e-02 -1.9487552880648556e-02  -1.7243724526389329e-03 -6.6543255073320678e-03 -2.8775482110152606e-03  1.0659520189723402e-02 1.6493753634721945e-02 -1.4151039549876546e-02  5.0298157325223865e-04 -6.0087725255118137e-02 -4.9941069857431256e-02  1.0245293727414076e-02 -7.0182271501936025e-02 -2.6757214126413933e-02  1.2077785377388763e-02 -3.6307993636526252e-02 -1.7155152355334583e-03  1.6918634065129067e-02 -6.1861103715230244e-02 -3.9390995242469785e-02  8.6229090027759858e-03 -1.1574714545835744e-02 5.3955065722242276e-02  9.2859983410231509e-03 6.1258215197734700e-03 3.3019824717598754e-02  8.8026531663132571e-03 -8.9823354363078949e-04 2.5353056114650541e-02  1.1346333365158338e-02 2.3456313544462960e-02 3.8169845815126988e-02  3.6588698334668311e-03 -1.8237889351568439e-03 1.5529154812472804e-02  5.6052750674686911e-03 -9.8185236921911304e-04 1.9466895671042039e-02  0.0000000000000000e+00 -6.8945622840297136e-02 1.2653225387173936e-02  5.6660941262168746e-03 -3.9274634302793619e-02 2.5672664062690614e-02  -9.5623894841285334e-04 -5.6678297015820132e-02 1.9324968851866249e-02  -2.1005381506874411e-03 -7.2257890421012480e-02 6.3255096656831211e-02  6.2954076256465452e-03 -2.8743694690886001e-02 6.4730770862856998e-03  8.5131777599974454e-03 -1.9244188244999336e-02 1.5932263637030642e-02  9.2847176830055320e-03 -1.9150059897829117e-02 1.5914278482587352e-02  1.2744884613614138e-02 -3.6000007864366308e-02 2.0636869876560028e-02  9.1286911842125094e-03 3.1600386406433159e-02 -3.4555416051356883e-02  8.2297912136381022e-03 2.2157399606372585e-02 -1.5803872266479606e-02  6.2193232652132972e-03 3.2842798155383469e-02 -1.8445386115085973e-02  6.4241589928139770e-03 2.5446675646390440e-02 -1.3964503911951859e-02  -3.0565977723898156e-03 -3.9110857825741072e-02 -3.9443136183132166e-02  1.5737996928599438e-03 -5.2750841405149872e-02 -3.3482433673510392e-02  3.5487473849766232e-03 -4.3306578703060900e-02 -2.1116131757563376e-02  -8.9503660522935523e-04 -5.8150712696210000e-02 -2.5302684948912794e-02  0.0000000000000000e+00 6.2294500014489530e-02 9.6305640426779374e-02  1.3313337206927497e-03 1.7175164658536128e-02 8.1935368094151487e-02  0.0000000000000000e+00 3.0202554764794606e-02 8.9776610673697410e-02  4.7127875465952278e-03 4.6220582698365834e-02 8.6581185822767054e-02  1.4652238169751242e-02 -1.4125187921031547e-02 1.4280300591037997e-02  5.1832435517268821e-02 -4.2462549377545379e-02 -3.4267108725684295e-02  1.0081812129885874e-01 -2.9458213221173059e-02 -1.9457643699661076e-02  7.6661100482682898e-03 -9.8348436209834619e-03 6.4110107320564016e-03  8.2336964513609028e-04 -7.4972065033727095e-02 -3.9233550265400770e-02  7.5814505276338168e-03 -3.2816490669643948e-02 -3.1343746949633974e-02  -4.8303247852228689e-04 -3.7136523812850687e-02 -8.1229614666935221e-02  0.0000000000000000e+00 -8.7974162188898822e-02 2.0028955130402232e-02  0.0000000000000000e+00 -6.3687041091481697e-02 -2.8952497365725659e-02  -1.0429197141099925e-03 -7.1556086367138297e-02 3.7177098900796810e-03  0.0000000000000000e+00 -7.1050912051051671e-02 -8.9478324430886901e-03  6.1645014230722189e-03 -3.8973653845832845e-02 -1.9324683071668538e-02  7.7694888193601047e-03 -3.4905488349023822e-02 -8.6471344992660581e-03  8.0576025305140932e-03 2.2816313294407634e-03 -4.6728617514946759e-02  8.6952686255727333e-03 -1.0238677889311239e-03 -3.1481518084282172e-02  6.1460004198954392e-03 6.3358100007054425e-03 -2.9043566861777788e-02  9.3783717794047039e-03 -2.6906021624378907e-03 -2.7649500101823071e-02  4.3742051590323098e-03 3.4660784302405299e-04 -1.7781202679138446e-02  1.1991491991526004e-02 -1.0244230942490723e-02 -3.3284350388272793e-02  1.4752924195719884e-02 7.3839018836911498e-03 -4.1506496949903306e-02  1.2783058716826416e-02 -1.6630238968000942e-02 -2.8125020969559385e-02  9.3932653828943406e-04 -6.0507710858783210e-02 -3.6956478908642208e-03  2.1522460584719196e-03 2.3783680379894968e-02 -6.8989077275458128e-03  3.8066870644402119e-03 2.5085339563496366e-02 -4.8667427911070144e-03  0.0000000000000000e+00 -4.2952997978841174e-02 6.4623911262608816e-02  0.0000000000000000e+00 5.1676428652685396e-04 3.6797886925615107e-02  0.0000000000000000e+00 -9.4027637792238536e-03 4.9449190255147941e-02  1.2253562013880600e-03 -3.8051281739405293e-02 6.4073944009249345e-02  9.8959770618700284e-03 -4.1189331442485447e-02 3.5365745314331405e-02  6.1603274302471948e-03 -2.1780848934673559e-02 3.2369306341918314e-02  6.5838096888193743e-03 -2.6333381706261715e-02 4.4508403549175637e-02  3.1148998955112862e-03 -4.2204874788928447e-02 4.1596632744570976e-02  2.3061103170569516e-02 -1.2887373894837692e-02 -1.9589929321645327e-02  1.6007770347018106e-02 -7.6236530990909752e-03 -2.1477439955514866e-02  3.5234211510760456e-02 3.5133610778727842e-02 -4.7677344334672786e-02  2.5025428379020311e-02 2.8381522665054087e-02 -6.0211497385722179e-02  8.9208649206616308e-03 -1.1860918983500127e-02 1.5450053085125754e-02  7.2837425251294410e-03 6.9505129567529796e-03 4.1482504165708430e-02  7.5372964629989818e-03 -1.9827156657369512e-03 3.1601802628880307e-02  9.1009607294033675e-03 -8.0746648924763108e-04 4.3450509163979335e-02  6.1546964928852954e-03 -1.0970605681201125e-03 6.2624333302650145e-02  6.1088785340981409e-02 4.0952893429300606e-02 7.6519552301067828e-03  4.9315078814807331e-02 3.0140071506783297e-02 3.5758854754196365e-02  1.0137061051046323e-02 1.8971845523545965e-02 -9.7889357688812004e-03  4.0452194964130807e-02 5.5645171232905091e-02 5.2189007014765039e-03  8.3243169757244283e-03 -4.8207571277363971e-03 -7.3332724880572658e-02  4.7761847393193906e-03 -3.9124872031005356e-02 -6.5053612359711799e-02  1.6339639532620836e-02 -3.0221721477107045e-02 -6.3879527403423647e-02  -4.4150086717035979e-03 4.0543216438167683e-05 1.0307060424136172e-02  -2.6819654886901067e-03 1.0775919109226083e-03 7.1218192939094095e-03  -2.6946250366647077e-03 -3.1787534276339351e-03 8.0113987250269320e-03  -3.6105097501748567e-03 8.5854835803437154e-03 -6.0385504219088082e-04  4.9547320874324813e-03 -1.0042372804509057e-02 1.4770451514683069e-02  7.9280456310698612e-03 -2.4571963676222140e-02 8.4055768560408351e-03  1.8679013624118144e-02 1.0230069076243855e-02 -2.9342968314582676e-02  3.4843785920661329e-03 1.8654608609400821e-02 -1.0499611313557087e-02  2.3506236574308880e-03 1.8631355821143974e-02 -1.0588222225351855e-02  2.4058112919447634e-03 1.3624730806859216e-02 -1.0592383809802883e-02  6.6828409154586496e-03 6.9228306852219104e-02 3.7122317633189933e-02  3.1763895178466431e-03 3.5671129571969391e-02 1.9977921083056668e-02  -4.0379547152145871e-03 6.5441707826729423e-02 4.1686106799913122e-02  5.8732086904981764e-03 5.1082484644449970e-02 6.1261746290161831e-02  4.1189933397574605e-03 -9.2365139013442701e-03 -8.2213892644159327e-03  -2.5199983867375108e-03 -3.4933638412338809e-03 -9.0364645466202848e-03  -1.0672223725559009e-03 -3.0632322856169940e-03 -1.9855884040750980e-03  -1.1304876781659638e-03 -6.7793960308809159e-02 6.1188372112204722e-02  -8.8727932083849080e-04 -4.6823255562904217e-02 8.8530801634637057e-02  6.9224054203776541e-03 1.9703225705211012e-02 3.9952206005524113e-02  5.3284208655320865e-03 8.0555719327450280e-03 3.8653216526802411e-02  -1.4713171094776294e-03 -2.0390433433427724e-02 8.8004956651171098e-02  -1.3505793873074821e-03 -2.8897262306042722e-02 7.1247914931356265e-02  -3.0347938486692462e-04 -1.3667665064113382e-02 9.3824994656422994e-02  -6.1537231895241135e-04 -2.6593455598488054e-03 -6.1536971515060733e-02  4.6036422694487600e-03 -2.0221308260963303e-02 -5.7500438252688274e-02  7.2736623165201506e-03 -1.5927686010001513e-02 -2.6206847773864669e-02  7.4491028175572573e-04 -2.8619738602695167e-02 -5.1642305162756211e-02  2.2851399183250218e-03 -4.9826745938742652e-02 1.5047370994590439e-02  3.6517243773063726e-03 -3.0561360227393745e-02 2.5640018557340594e-02  5.6145055413834412e-03 -3.9477253114689151e-02 2.6142956147385179e-02  5.8579469170673788e-03 -3.1234918219140706e-02 1.8747242965062524e-02  1.6858282996572688e-02 7.7632107140248718e-03 3.4290137916904807e-02  1.7129497873626030e-02 -2.6691101494596831e-02 2.0434090683592428e-02  8.7671877860883152e-03 9.0860881812934533e-03 1.9524089417793287e-02  1.7602364222912704e-02 -4.7968775169451389e-02 -4.1026143276687535e-02  1.4689297398481954e-02 -2.9522923021100066e-02 -1.2406457714105078e-02  0.0000000000000000e+00 -8.0148509449279287e-02 4.9819835950940146e-02  1.0928552850414136e-02 3.3132801253668125e-02 1.3596318112149945e-02  1.8313941072001853e-02 3.3487173496471977e-02 -1.2333619248410446e-03  1.2687966129352456e-02 3.8241922535604989e-02 -1.0238791712371535e-03  4.7021526582240476e-03 1.3320139720002169e-02 -1.7447105219808853e-02  1.4766452198215169e-02 1.1131139094421295e-02 -4.0243497643691950e-02  5.2026792421466248e-03 9.3719497668076288e-03 -1.8254757166622424e-02  1.3889749661042679e-02 1.0582246087248365e-02 -3.2787013961765039e-02  -4.4652022976053037e-04 8.1856077142797398e-02 -2.0728997206969912e-02  -4.6496905579845318e-04 9.0496163864219312e-02 -3.7700634952862661e-02  -1.0685959902257628e-03 5.6813870627590968e-02 -2.7423440035852759e-02  -1.9297050641799707e-04 6.4795563621399779e-02 -9.1108663705798433e-03  8.3629388397656081e-03 -1.5736959802059948e-02 4.0693677014956325e-02  7.9146465909705668e-03 -1.5172488810879164e-02 3.2718866048185018e-02  8.8514939636328283e-03 -6.6748324810017639e-03 3.9962527799347787e-02  0.0000000000000000e+00 -4.0702505721904800e-02 -1.2816444664733650e-02  5.3239160451525385e-03 -2.8934112960504937e-02 -3.8303016778556583e-02  4.6958993061568905e-03 -4.2078837662909041e-02 -2.8369589338023582e-02  -2.2420052498874680e-03 -7.0782290656292060e-02 -6.2884537228725237e-02  0.0000000000000000e+00 8.3555887009051963e-02 -4.9534192723413424e-02  -4.9590249035411796e-03 7.2520621088157655e-02 -3.6290025954526163e-02  -4.5577109001550412e-03 9.6524200795923804e-02 3.8290258812611978e-02  -3.3020422744922877e-03 5.0828554339218797e-02 -7.1125912741036275e-03  4.2764265622636643e-03 8.1537515657247719e-02 8.9333723239242470e-03  -2.2215468930696135e-03 2.2443794149083506e-02 1.3067295553882098e-02  0.0000000000000000e+00 5.7914853150116227e-02 2.8535096562869581e-03  0.0000000000000000e+00 5.8625856673318509e-02 8.6340651895466716e-03  1.2346750271240046e-02 -1.7881924716475778e-02 -3.6392410870709900e-02  8.2924709959993070e-03 -1.3379980516515250e-02 -1.9187080111254150e-02  7.5733103147467597e-03 -6.5055402114721503e-03 -2.5573280167302079e-02  9.3899015767651382e-03 -1.6473054849273826e-02 -2.0957088628236937e-02  6.0006756950803713e-03 9.9400026844994344e-03 -1.2111927084895537e-02  4.7292457481426390e-03 4.5721737974280469e-03 -1.9092554409434442e-02  1.5482354961867274e-02 -4.1045232299197487e-03 -1.9222780709755440e-02  1.6359976756386268e-02 -4.4637652133601997e-02 5.9520700109758830e-02  1.2868396342976702e-02 2.0364369262874351e-02 3.0401134810425692e-02  2.5293222662262686e-02 4.4601731276044674e-03 6.5143725497461613e-02  6.1432822869652093e-03 1.5535251373593061e-02 -2.5894086093838860e-02  7.8969610476303104e-03 2.7971724034841230e-02 -2.6697161571133665e-02  8.9891862791636708e-04 3.3231811858541883e-02 -4.2431396600420480e-02  8.0529912939535549e-03 1.7180823927576739e-02 -3.0009904911125151e-02  0.0000000000000000e+00 -2.4093916491075340e-02 -6.8440148986119942e-02  -1.8901385505181226e-03 -4.0408523350198511e-02 -6.1269643228217437e-02  1.0539130985241436e-02 -7.9089625165877590e-03 7.7101889299198312e-02  1.4754922079352804e-02 2.8867487010112502e-02 2.1326677342319168e-02  7.6886113043746060e-03 1.7249994994547478e-03 4.5361623691204965e-02  1.6024330488509944e-02 1.6221301667537637e-02 3.5877089054559615e-02  4.7490485429755366e-03 -1.3671904932507974e-02 -7.4481985412602134e-03  3.9024580453348883e-03 -1.2512468627869987e-02 -8.3150274176714140e-03  7.2026832224005881e-03 -1.4029238576589586e-02 -9.1957584877893402e-03  5.1304420723737006e-03 -1.5655672470491405e-02 8.2436879719029292e-03  2.3698050314744078e-04 -2.0291684764559503e-02 6.3570608260905451e-02  1.1529659322938568e-02 -2.2561863746139166e-02 3.2804522440662731e-02  1.8643338386179070e-02 -4.4263068747312766e-03 3.9166679303159736e-02  1.2361357256330790e-02 -2.0604774551205397e-02 4.0146715911067943e-02  8.8425472066001147e-03 -2.3193631342642979e-02 2.8475271954174330e-02  -4.7904255111393904e-03 -1.5689663547079125e-02 -8.6208981048318659e-02  -7.3122483209277179e-05 -6.4617938151875429e-03 -5.2037032146708156e-02  -4.7544117434646189e-03 -1.3897749808050516e-02 -8.7161097974107510e-02  -4.2809766603053943e-03 5.3473814119458455e-03 -9.1002499578957424e-02  4.7479282445658197e-04 1.7897223521025858e-02 9.8721229356207460e-02  2.4122918769749206e-03 4.8127511601775926e-02 8.2379544777058389e-02  1.1506910334412963e-02 3.5493803806545252e-02 -1.8326735893965176e-02  2.5261587589589050e-03 1.9105682779268475e-02 2.0730314686044655e-03  3.4562578939611522e-04 1.7557328767230419e-02 -1.0576046292605221e-03  2.8186168003130445e-02 -4.2103502951255870e-03 3.3326438405527535e-02  5.0836475932893466e-03 -1.6933737715873892e-02 9.5684888157400554e-03  8.2671698135642589e-03 -2.0002463179410745e-02 4.1841922090563753e-03  1.8920096244222074e-02 -2.3875390495002487e-02 2.4469809938378106e-02  7.1843292827637809e-02 -5.4306683085852546e-04 3.0508520096918575e-02  2.2894772598957753e-03 9.1454864081585742e-03 1.1488254197806446e-02  2.0027957016367979e-02 -8.6804532039111270e-03 -3.2581749660725697e-02  1.6691216990726926e-02 4.1647158897448487e-02 -6.3913562984488803e-02  1.2256065539470076e-02 -1.0561076746326606e-02 4.0588534112800174e-02  5.7441493723936234e-03 -1.6115222705231191e-02 2.7138283748152678e-02  3.3452772660846181e-03 -1.8024642111651602e-02 2.3254344750969311e-02  1.2603945493476784e-02 2.5200237118228965e-02 -2.8930781220742944e-02  1.6121371328495545e-03 -3.9553649085143659e-02 3.6510615295974044e-04  3.7018472933964511e-03 -4.3592262295052087e-02 -3.6744270745832476e-03  1.4433224733757721e-02 3.7035140771358367e-02 1.0308924345892902e-03  5.1717612829357204e-03 2.3220349501525312e-02 5.8529915672426774e-03  8.6213554541802427e-03 -2.4781014358867353e-02 -1.7730014353173319e-02  3.1613295530583223e-02 -5.5338690495660085e-02 2.0466842823083659e-02  2.2725908486267356e-02 -5.5308611704951875e-02 4.3052110105282454e-02  2.9362927254713938e-02 -3.2044837012756455e-02 5.1849197464017893e-02  4.5728741594377705e-03 3.8736933139388766e-02 1.6803014090199318e-02  1.8051130567456827e-04 2.5439600483987454e-02 2.1428193834900904e-02  1.3078305576721274e-04 2.5741600622291274e-02 1.1170775353933583e-02  6.3876371980044200e-03 -3.4102706491414822e-02 7.5832089774959394e-02  1.3318581344966817e-02 -1.3508821973887549e-03 4.1168424750911689e-02  -8.9077976040686656e-04 1.3091175634498695e-02 4.0506668718319254e-02  1.3163096590667264e-03 2.1035500996546164e-02 2.3031024160798212e-02  7.5582774941155217e-04 2.8924397293688824e-02 3.4591054715961272e-02  4.8543587546529604e-03 2.1689702925254014e-02 -1.3376648395086227e-02  7.4004453590803890e-02 -4.4103261006664791e-02 1.0493161441221952e-02  1.5620900878705275e-02 -3.4190505015928636e-02 1.4967489065007939e-02  6.2683713916736727e-03 -2.7466886571324976e-02 2.8118274668566963e-03  1.0368253068940493e-02 -2.2410573874979457e-02 2.4077038138896265e-03  7.3023431861905554e-03 -1.4231102495367538e-02 5.5261030610591864e-03  -6.3097044131583220e-04 7.4478468156310887e-02 -5.9411539820577314e-02  -2.3431438659745280e-03 7.2674533897967755e-02 -6.3196041670536163e-02  -1.1690437863786183e-03 4.6374710867966538e-02 -3.4352633292815807e-02  2.9024364032297621e-03 -1.0555261798106411e-02 6.9580229293857015e-02  -2.4556400841697383e-03 -8.8571990873903439e-02 4.0280498316830346e-03  0.0000000000000000e+00 -5.5897632491424556e-02 7.8269085226808519e-02  5.5990723296964577e-03 -3.1080306305020015e-02 -2.5631592827393166e-02  -5.2709603354346185e-04 -3.3501247216684016e-02 -5.8099230767038969e-02  6.2892338866254406e-03 2.5053314986751805e-02 8.1006283747459690e-02  1.0372107730000980e-02 -4.1250340567033639e-02 -4.5449677778318801e-03  8.3151128440617072e-03 -2.3617512713879733e-02 -2.6210695476557304e-03  2.6961012221363920e-03 2.0480447231544324e-02 1.2378280974654534e-02  2.9767051513505694e-04 1.2488911244993385e-02 8.0426157414464784e-03  6.6378995942015604e-03 -2.9733715579616900e-02 -1.3598533960464175e-02  7.0264144817949858e-03 -2.3464578860152314e-02 -8.8877971847679278e-03  1.7479940699114183e-02 -2.0501982217911260e-02 -1.8044456321748364e-02  1.9020371319938684e-02 -2.1290439372546963e-02 -1.5214093949176312e-02  2.1875575127681676e-02 -7.4413664682392846e-03 -6.3412903327670550e-02  0.0000000000000000e+00 7.3921653536238807e-02 -2.4297382323646972e-03  0.0000000000000000e+00 1.0464770907708382e-01 -2.4886635694419464e-02  1.5883587723754363e-02 4.5293060543873370e-03 -1.6730803940571314e-02  2.5402776234062362e-02 2.0392010724565760e-02 -1.7340748781724345e-02  2.9372464575055735e-03 1.7365115495166041e-02 -2.5081733742078418e-02  -8.3239345119969323e-04 2.3593817513183648e-02 -5.6895730581435190e-02  8.4214033442374398e-03 -6.0790210746929731e-02 5.1485810456227868e-02  1.2274892186665587e-02 -1.2508511963828055e-02 3.0293499198787262e-02  3.3024115084723947e-03 1.9821533806217043e-02 -5.5568247427248991e-03  5.8045000643104127e-03 -1.5463067328660134e-02 1.3979672384396208e-02  3.5909429366984312e-03 9.1778450641257728e-03 1.5216993702446493e-02  5.0363603694271895e-03 1.0473172930238406e-02 1.8226533998761427e-02  6.0228813307514305e-03 1.6193466896800728e-02 1.8039546778200636e-02  1.8449273306522379e-02 2.8642521796680604e-02 2.1413767349301577e-02  4.7986712638533803e-02 -5.8042376448250173e-02 -4.9758396676722961e-03  1.0213217666079450e-02 -2.5267201563913558e-02 1.5799834327239925e-02  7.7284888458260129e-03 -1.4716510704033219e-02 -3.5463031826265826e-02  1.0844110491707432e-02 -1