<?xml version="1.0"?>
<VTKFile type="UnstructuredGrid"  version="0.1"  >
<UnstructuredGrid>
<Piece  NumberOfPoints="571" NumberOfCells="2204">
<Points>
<DataArray  type="Float64"  NumberOfComponents="3"  format="ascii">0 0.4557658422360288 0.2037239481916731  0.215342302085561 0.4088165324138145 0.276607389891164  0.1898111423118776 0.4804099814266372 0.120481987618956  0.1488218331026943 0.5456085533310675 0.3580349126526996  0 -0.3584022067626158 -0.34713844364978  0 -0.4343749685821028 -0.5981026889621334  0 -0.2183570664703646 -0.4494716729159423  0.2262183546861321 -0.2890645186499676 -0.3992423335076322  0.8236654683860651 -0.3854091937706139 0.1520784617307017  0.9611575557215211 -0.3381064906313395 0.1705616282461981  1.101237692407842 -0.5682744000940003 0.1641358915984834  0.8808535886157749 -0.4013915609715027 0.01807349879338826  0.2768592740765526 0.6713354132414016 0.2942300696330516  0 0.7174485391010063 0.1810648686359916  0.1358245596864188 0.7170315960464521 0.3854999039085954  0.1805154614533415 0.8310021267322617 0.1686271154597134  0.2260044654083829 0.5284200423715826 0.5113804949326196  0 0.6247318086192194 0.7784334564044499  0.2234432804039685 0.5510573463749909 0.8248530136698899  0.2051937258140014 0.6861590858235175 0.7166328779599186  1.436121479967118 -0.1618100638832992 0.3933467488268004  1.607502195396375 -0.1748143324203481 0.2469448255435848  1.541913529235868 -0.4300925108691208 0.4574853456310987  1.346433659029038 -0.4270520351658764 0.2586315063847239  1.542556911883307 -0.3473583885216562 0.1166196836262704  1.396607295547186 -0.1386793780546898 0.1050203081845187  1.68644067764384 0.09489426693876185 -0.2106786860728978  1.481704577030881 0.04548157799178949 -0.0120835870758516  1.738705877114763 -0.03194054357726368 -0.02005955530575017  1.674236160379273 0.2085240449466953 0.0274629254215289  0.8037946419929682 -0.3370944910749437 -0.2466343060504287  0.9362642156920464 -0.3704091732671893 -0.1147956977516422  0.9857831417878248 -0.5299008476462513 -0.3433600658162904  1.045221004397578 -0.3025921429816227 -0.187001915832861  0.5194649326683753 0.03965186697137328 0.7329698387380782  0.6793945283207881 0.2535408389821024 0.9037481344226557  0.7164077726675464 0.05761331572313 0.9294704380642947  0.7957068750075035 0.1527677362072418 0.6682504641370516  1.627668761131291 -0.2749473348912957 0.5032979280239953  1.441039914988583 -0.3039695720636669 0.6201421578283288  0 -0.5157481316615737 0.5311596756682169  0.1752388498574636 -0.4274470340138514 0.6964420531097035  0.2745817512199675 -0.586235345398221 0.4466848625012881  0.2123538086145217 -0.3435876563839098 0.3547882322077363  0.6886953441565045 -0.8994645218821888 0.2614554791402248  0.7925803761983674 -0.7358913891656684 0.5443993262429085  0.9683407667895547 -0.7545578665694681 0.4378949691425725  0.7829392834966107 -0.6369054036577044 0.265784144462074  0.8049799187676107 0.5610888404572143 -0.3400918840523413  0.6955806663620081 0.829343331792612 -0.429140473648113  0.7577552661455027 0.6779093217819596 -0.1086323982351653  0.9092927595716991 0.8360853336671894 -0.2984444117297587  0.2598069211373117 -0.6627931504171131 -0.3175951070732924  0.1764099108743622 -0.8120348674137512 -0.1718130402549574  0.3997599759778838 -0.7545520996465095 -0.160404821653467  0.2226756839645508 -0.7073355731667365 -0.02210405772723709  0 0.3584022064076389 0.3471384433363549  0.156219818557485 0.3681990695396501 0.544612835542747  0 0.2183570659652789 0.4494716717761347  0.231673397548859 0.2888331680572713 0.3989257253052388  1.654861426338621 -0.2478449385455452 -0.06559739536694574  1.428350129602535 -0.1115590829296363 -0.09670693874748981  1.47153404734189 -0.05397042629357812 -0.03559554145352491  1.692529569909899 -0.1112403810512433 -0.2155045758308118  0.6043587999831042 -0.4258877923435302 -0.1637909996322506  0.6956465150978134 -0.4831009610867857 -0.4710971354434343  0.5544405621623107 -0.2427987236227395 -0.3955115419701227  0 -0.4802903493566127 0.1368959947787141  0 -0.7302700985569437 0.09286428021977672  0.1926808816194057 -0.6139415882032969 0.2542662684407305  0 -0.6648512623073015 0.3234225162635865  0.2468218893148968 -0.9514410968355673 -0.2772800963218767  0.2161236652421403 -0.9865572864454526 -0.112821630759336  0.7040807678965115 0.03144525423153868 -0.6784996553169467  0.6049865433828723 -0.09298800456506828 -0.9469011811091913  0.6771532227361217 0.1339387063677078 -0.9301296699811332  0.8211634938249786 -0.0614948596176802 -0.9069759893778435  1.036464561655427 0.07803635001225265 -0.8480026857180265  1.047382312232843 0.1449735934663914 -0.5834636095260999  0.847977007252553 0.2190842168098666 -0.6515780325598419  0.9673540972414912 -0.09218333403450402 -0.6314877750258698  0.1654630623866923 -0.7891482550794858 0.1754039241458947  0.8065091973842723 0.8996210807451531 -0.1516398615176273  0.9689115062321594 0.8697371324164864 -0.05737816468989729  0 -0.05224970938185564 0.7383018464539186  0 0.152057173948395 0.9883716984394171  0 -0.02181779437745626 0.9992217843736096  0.1480076500600712 -0.04226556988656546 0.8228748951508928  0.3570119558679766 -0.3875673443422485 0.6283811022673187  0.3032127927073427 -0.27609906509396 0.947385211707312  0.3710752335953543 -0.1597222693377068 0.7268486788309733  0.1596979455818125 -0.2274471135455735 0.7803051869954362  1.383661570440923 0.3500806804477891 -0.3732923251768873  1.466985613337009 0.1703829661173299 -0.3704672574792687  1.339191945049393 0.1603992931247615 -0.1392787093071194  1.218793485220007 0.1524777818547855 -0.2381940101844883  1.602030729744447 -0.5096923759111893 0.3039517603136516  0.2819554713663738 0.3978050956554593 0.9044496162677476  0.4858574754451384 0.2185511741074815 0.9441265533577465  0.3009349333273584 0.2245304454724337 0.9612324617992346  0.379728425704766 0.280606621983304 0.6665473761657372  1.444127185672022 0.1075723840985631 0.06057743607179902  1.378055437130003 0.08638063566135351 0.1627644389880674  1.533532002695516 0.2881113291306691 0.2226708993650882  1.356915764058502 0.1947065627274188 0.05292547050348874  0.9249051061462799 -0.02602338380190757 -0.3890518287049182  0.9512388581902265 -0.191188988513543 -0.3322379378462166  1.135906844855498 -0.1032642586232273 -0.3097927758696814  1.881364268925326 -0.140513086430453 0.3033057710900302  1.934322816827055 -0.05337530921901619 0.226075258562982  1.877213964533651 -0.2395345478348945 0.2224375002219985  1.735446578002003 -0.1851048010644701 0.1003449960561909  1.186577623012013 -0.6419807307222345 0.4790354508382345  1.033837735191197 -0.8226358658489163 0.2224324767312418  1.220110330933713 0.5579069237118678 -0.1384241073880815  1.202641783759364 0.7660089775647176 -0.2059219350323402  1.348204362088659 0.7291701336566525 -0.08553858199864187  1.373890877408544 0.643443481897465 -0.3295312840141351  0.8889403608854015 0.3440656474620377 0.202206313611441  0.7633070877744067 0.4829563714339042 0.4609914933946992  0.6074025488328552 0.3980824031539547 0.2202074157880716  0.8498411362142491 0.2538314141398708 0.3183972385314329  1.906971030501883 -0.02924262873585302 -0.2925304055025031  1.917841471920854 0.1280070835989337 -0.2332969757870052  1.977100064565325 0.03461277913397159 -0.1242052986087955  0.3803691808866855 -0.3355579543064399 0.3465621272107741  0.230692984353059 -0.2010076006014083 0.4497433381602904  0.64730757425909 0.3193924789905956 0.6430219874668933  0.5312493112787571 0.3869819773062052 0.88013158366127  0.1981178548262078 -0.08266711518446004 0.4878219796120337  0.1507883552693025 -0.06619623858581572 0.653824196075696  0.3173745720928878 -0.03479593819612045 0.486488455054065  0.2407519661948721 -0.2942799243084049 -0.6679877304763879  0.1447181131051986 -0.5563999954157572 -0.5926523225276602  0.2230025032730146 -0.5510695149780613 -0.8248711742736513  0.4209850149827287 -0.4440580800016051 -0.5525257008565216  0.1716153851630315 -0.6666872237464663 0.5373944942519072  0.2368004460370194 -0.5856959765217175 0.7985771930839038  0.1929790441535802 -0.7172143285528213 0.6867043074441012  0.3361270406401012 -0.7109442361065206 0.6808248927354941  1.231410932483969 -0.2849146919313793 0.4605665905528151  1.110789378543992 -0.5894825827383308 -0.1067217944497213  0.8408046771696551 0.3497636183210086 0.8330429381184914  1.142942431521951 -0.2180429942377705 -0.234249801634715  1.076847482432394 -0.3421567079452609 -0.5159050543339727  0 -0.4042503680362676 0.2927297205034136  0.9376478613173151 0.301269473405784 0.577571779432505  1.104332712259922 0.3987677063979381 0.5106339932066641  0.9831612809725235 0.5290948589007964 0.3884115874044889  1.178465479798848 0.6477217256402028 -0.4758816668598858  0.9929652204741933 0.4334281188487362 -0.4635541053406589  1.261911899573236 0.4897003834983976 -0.596028440710165  1.207759715786344 0.4238689013699606 -0.3198509399978258  0.1481472324300359 0.5739240544778232 -0.2790540507606966  0.2546555330241972 0.4419467201837363 -0.2146549363952016  0.2967718881738725 0.5745374608476215 -0.4594495357992309  0.2393835589042319 0.7062628630168708 -0.2503816715840821  0.2282246281134045 -0.1080099340663203 0.9865598892110472  0.4178442724260187 -0.1245374237060022 0.9684717349810656  0.3881404830163965 0.06411321972342053 0.9776678414861761  0 -0.9797478924171443 -0.1948604103628404  0.3426893074645813 -0.6305825071524406 -0.5053249099733295  0.5224124653367972 -0.6441468842677944 -0.3200369093567181  0.3978795981623498 -0.3978389693554893 -0.2691547580651357  0 0.4042503686430302 -0.2927297209337942  0.1715523702503297 0.4856012358052686 -0.4114946992370639  0.3285090128755508 0.4726788468012185 0.1185060457564433  0.4000997538361018 0.7274334460394527 -0.05524970377357666  0.1938275052163325 0.6938988075495152 0.03268211754021733  0.3539311094273428 0.8110411613105711 0.1428620220339987  0 0.9992217844664394 0.02181779438076782  0 0.9797478924229182 0.1948604103703783  0.7981036710574224 -0.282491452577968
[...]
<PointData  Vectors="state-0"> 
<DataArray  type="Float64"  Name="state-0"  NumberOfComponents="3" format="ascii">0.0000000000000000e+00 9.3732712379748659e-02 3.0454830348238193e-01  1.0679217895911215e-02 -2.9328302343456384e-03 2.5283284470537620e-01  2.8580352632085796e-03 1.1027887471850942e-01 2.3940638319106003e-01  1.9834723607801686e-02 -3.5882188511236202e-02 2.6071738213624568e-01  0.0000000000000000e+00 3.7874523522006119e-02 -2.3960982794448155e-01  0.0000000000000000e+00 1.1781897356636366e-01 -1.9463087474560736e-01  0.0000000000000000e+00 1.1535285964704933e-01 -2.2149033164760631e-01  3.6478192283594764e-03 8.4992159861432576e-02 -2.2998921801830194e-01  5.6227289626065789e-02 -1.7236025009470760e-01 -1.1874510437125710e-01  6.6523801189409440e-02 -1.6158734086291837e-01 -9.2564001292590112e-02  3.2439901566641366e-02 -4.8554906573712850e-02 6.1007596833959989e-02  6.3960171539706970e-02 -1.1912575604486828e-01 -1.6401128572634605e-01  7.4679617471886508e-03 3.7523916449949159e-02 2.0250522032441784e-01  0.0000000000000000e+00 6.5680906489753013e-02 1.6235911597831532e-01  2.4111725584054786e-03 3.9276702605728908e-02 1.5258220544906428e-01  5.8633600354028549e-03 9.1426774002439024e-02 1.1303113212887761e-01  1.5576506198299526e-02 -5.2692648152467415e-02 2.0449611979146490e-01  0.0000000000000000e+00 5.7838613899729392e-02 6.5665555438158330e-02  1.5324380573360366e-02 4.4379544794631104e-02 7.5618694500595968e-02  1.8481500422296675e-02 4.4229381183089146e-02 6.3289346350683937e-02  3.8948706013110693e-02 5.7954312107614071e-02 7.7233418798442477e-02  4.8134921589032639e-02 3.5239521299826902e-02 6.6473630823217181e-02  4.5755601320794960e-03 -1.2012239087000495e-02 4.7117522014939781e-02  4.5582934733032272e-02 -4.8782702082934501e-04 1.0389317338398188e-01  4.3372390829941432e-02 -5.6706752149954191e-03 9.0792804789650308e-02  1.6040650025660561e-01 -1.0252438313397287e-01 -3.2720030518494467e-02  7.7040435208729663e-02 -5.7930917268459843e-02 -7.1834353289963432e-02  2.0367864443559314e-01 2.6848984567269352e-02 -6.9025606659973756e-03  1.0117612072781379e-01 -4.5239421988889944e-02 -2.3068942732123846e-02  8.6579606363977171e-02 3.8647807228265302e-02 -3.0946089697083786e-02  4.3214358445138892e-02 1.5526306295751630e-02 -2.1158613844554552e-01  6.4735462740727015e-02 -4.9718488659297386e-02 -1.9167277993790613e-01  3.0799166577525364e-02 -6.9988635981193786e-02 -3.0392754410465524e-02  8.0003662201728512e-02 -6.0398482539561205e-03 -1.8088771844146206e-01  1.8604333932470102e-02 -7.4144923400050244e-02 1.0483838755301118e-01  1.5461812054931721e-02 1.2005578915347479e-02 6.7651433354325302e-02  1.7597994158200791e-02 -8.8920589600981655e-03 6.5434138566783609e-02  3.1836709126262061e-02 8.2572229164985297e-03 8.7613821245156848e-02  -6.7080298574716543e-03 -5.8203534885716193e-03 4.4142259890527891e-02  -2.0906547076669111e-03 4.3131754537264764e-03 4.4278567561308241e-02  0.0000000000000000e+00 -2.1386326730254487e-01 -7.9910846798788973e-02  8.3605961603191916e-03 -1.2189158635326634e-01 3.0053420519249762e-02  1.0264864144965895e-02 -1.6888370007948378e-01 -6.5463959029937291e-02  6.9288472751720589e-03 -2.4434434868819033e-01 -3.8486021751456843e-02  1.1558425253899786e-02 -6.4640592755794771e-02 6.2328979423019841e-03  9.1401034985870919e-03 -5.4521215376079818e-02 4.0553797341625064e-02  7.3854368650505108e-03 -5.3560060161607227e-02 2.9802824201643430e-02  3.1131064765587729e-02 -8.9322802371486723e-02 1.5062621696695696e-02  2.5847595311212033e-02 1.0228711344712038e-01 -2.8697847752234069e-02  3.1589189428512456e-03 5.3729612112133375e-02 -2.2527658823473271e-02  2.5163952628513859e-02 9.0590058247772970e-02 1.0643580603017296e-03  -5.4655304040388377e-03 6.2054997191873698e-02 -1.2885155521024486e-02  6.1905707584220251e-03 -1.1531530725080893e-02 -1.8357705306425773e-01  8.2344664933052553e-03 -7.5651227533953300e-02 -1.2228400790785467e-01  1.6506474532527318e-02 -7.1145406849080578e-02 -1.0623782342577917e-01  9.3225240312903544e-03 -8.4737676282409358e-02 -1.9140252903925575e-01  0.0000000000000000e+00 -4.5367148702002862e-02 2.6932623755333956e-01  7.8363402470670255e-03 -1.2295902126710131e-01 2.1615874975328950e-01  0.0000000000000000e+00 -1.1630500544600895e-01 2.1379938344551566e-01  1.5674686148888742e-02 -8.0230730974961195e-02 2.3841576324362179e-01  7.0564678447921636e-02 -6.4581642848668103e-02 3.5439892156114594e-02  1.6421488010017748e-01 -8.3753933887848585e-03 -1.1544624705597567e-01  2.3972842024767291e-01 -7.0420594429993367e-03 -6.0824410957029090e-02  7.0956142647945447e-02 -8.8973297855491282e-02 1.3395693258153876e-03  3.3823216486302946e-02 -4.5033580860249715e-02 -2.3180920134521218e-01  2.3811498729230610e-02 -1.6727247867230469e-02 -1.1683394362748899e-01  2.4803954547438306e-02 9.9344650711495036e-02 -2.2438726845917339e-01  0.0000000000000000e+00 -1.8824112780852842e-01 -1.5003911103631462e-01  0.0000000000000000e+00 -1.0736374919386975e-01 -2.0140733777747027e-01  4.3897972771164157e-03 -1.7577314873877403e-01 -1.6210871927131129e-01  0.0000000000000000e+00 -1.7229055775698826e-01 -1.5351663229231186e-01  4.4102795713529958e-03 -7.0955736166848221e-02 -3.0250919028225971e-02  3.8723256356683233e-03 -6.0568250525636448e-02 -1.0025748695685366e-02  2.4878872355030328e-02 7.7175681713236563e-02 -9.2652894374052927e-02  1.5942920345775782e-02 -4.2757718419137117e-03 -7.4629621235910978e-02  4.0213575505633169e-03 2.3119767438863556e-02 -6.7052476802741054e-02  2.1532858724090914e-02 -2.7679330859709554e-03 -6.8791657684150867e-02  3.1186343316065013e-03 8.4791940367051725e-03 -5.1230875004536852e-02  3.2923313925764322e-02 3.9103350750737077e-03 -8.1915809824321159e-02  3.3826759209043690e-02 2.5051084209399308e-02 -8.5725793515201126e-02  3.2693106710272472e-02 -2.4665730341871736e-02 -7.5420890764249987e-02  2.3710307330139734e-03 -1.2425006347110691e-01 -8.7262909717535156e-02  -3.9260360349314708e-03 6.9273726110035933e-02 -1.1223251721861872e-03  -5.7113693439546270e-05 7.3037163171398828e-02 -6.1722309545025292e-04  0.0000000000000000e+00 -2.1345416716157781e-01 7.8462258432700230e-02  0.0000000000000000e+00 2.1410703969762862e-03 6.5450673540751542e-02  0.0000000000000000e+00 -1.6616772363654313e-02 7.3145421402400726e-02  8.6229688181595592e-03 -1.3524992009147438e-01 1.0029162909774160e-01  2.0082735237922894e-02 -1.5244413209760069e-01 1.7888383431030379e-02  7.3144074168831905e-03 -4.4187160713600786e-02 7.2229269356902590e-02  1.6127698330059080e-02 -1.2904135815547840e-01 6.8528474323164140e-02  9.9717528197455357e-03 -1.3340787921293648e-01 5.6227750152982037e-02  4.6840115066067188e-02 -6.8556573189547540e-02 -1.0481049400810542e-01  4.8502791155777762e-02 -3.8874851966776341e-02 -6.8009571600606444e-02  1.3052010667056832e-01 1.0076097833955369e-01 -3.5793112007359408e-03  9.9822925146042144e-02 1.3663415752549773e-01 -2.4541824959100809e-02  9.2427788316326379e-03 -2.7187531082634390e-02 4.2607196889254323e-02  9.7069322951541092e-03 2.0674773996675617e-02 7.8484271269616560e-02  6.6431317296749203e-03 4.2960327861755153e-03 6.3908374964680784e-02  1.3441901105911298e-02 4.6759755676882503e-03 7.3294258912778132e-02  1.6544508726850714e-02 -8.8500833660744765e-02 1.4697859726090451e-01  1.8005995152581275e-01 4.0626127201746787e-03 5.2802757860614967e-02  1.6192866418459712e-01 -5.0140738891851618e-02 7.1134983813217978e-02  4.8489893311379012e-02 7.2864269291708236e-02 -3.2988293960199568e-02  1.4095156210204349e-01 3.8436411616947032e-02 8.1276379361713599e-02  6.0220154724432595e-02 1.4610317556313615e-01 -1.2263987566801834e-01  5.4144602763859039e-02 7.6253730196103681e-02 -1.7649723698189887e-01  8.2804158038839462e-02 8.0762190054067082e-02 -1.3813437514669344e-01  1.2261389912379119e-02 3.8127821664402039e-03 3.8172859205924010e-02  3.7057738394069277e-02 9.0880472214702988e-03 2.9653932829995937e-02  1.3626949008598850e-02 -1.9727077305078918e-03 3.4039934219348658e-02  3.6545820090338819e-02 1.8878538121298451e-02 4.9768291501553881e-02  3.0679666680676252e-03 -4.2814875453889449e-02 3.7845040949101703e-02  1.1748993590858726e-02 -6.1838618953956703e-02 1.3678395222953530e-02  4.4066995213848076e-02 2.4495960634584941e-02 -1.0619999789022386e-01  -2.0010902940129111e-02 4.9167154968044809e-02 -1.8711512236131062e-02  -6.4644685049644410e-03 5.0475647616773471e-02 -3.5796806245048829e-02  -1.4447044138740865e-02 5.1116592408495969e-02 -2.6528437793981396e-02  6.0282409651598153e-02 1.9680776079065661e-02 1.9790691140949554e-01  2.1907712587447850e-02 3.9668137365349951e-02 9.2400588625042621e-02  3.1282728263229032e-02 2.0469749545810604e-02 2.2430730846619834e-01  5.2284657641296209e-02 -5.4896237665210054e-02 1.9178503303589350e-01  3.1307346474303513e-02 -6.7981301511600326e-02 -3.3127927801995381e-02  3.7790120640978461e-02 -6.4147970090468617e-02 -3.7174598798743429e-02  5.6334191671776127e-02 -5.4710287672451410e-02 -2.6876554539165598e-02  1.6507601877697370e-02 -2.3944412154727521e-01 -3.9289893011218421e-02  1.0532837034868268e-02 -2.4344198836952852e-01 5.5193394702149699e-02  1.9865210089648630e-02 3.2194672278630636e-03 1.0759631945549693e-01  6.1298825632911556e-03 1.8637214216242912e-02 7.2816229730225307e-02  6.5500543038766812e-03 -2.1659895921703254e-01 1.1053014679478777e-01  5.2789167667247382e-03 -2.2756621476768329e-01 8.0087228933874266e-02  1.4287497232050016e-02 -2.0717145033559689e-01 1.2746279948132574e-01  5.9230767984055572e-03 1.1536759408333842e-01 -1.5625969302206330e-01  7.0768129320619919e-03 2.0319637092632181e-02 -1.5943447223398508e-01  1.2996583731312236e-02 -3.5369235151969658e-02 -5.8067826561213266e-02  1.2175345078046880e-02 4.8422937567169928e-02 -1.6653983728131688e-01  7.4011504946093851e-03 -1.2007588515996452e-01 -1.8095020848441591e-02  4.3238612674377621e-03 -5.9870819374679564e-02 4.5872302401338189e-02  8.2656126798251565e-03 -7.0740303011652586e-02 4.5048361816565297e-02  5.8919999411694689e-03 -5.3757005026642372e-02 3.3439655431030363e-02  3.6377145628247884e-02 2.3159536455933993e-02 8.8786881127040362e-02  3.4394536561967649e-02 -7.4291024878129330e-02 4.2702907211312334e-02  1.4512361799730492e-02 1.8769671165132989e-02 5.5596368523375191e-02  8.9888184706630944e-02 2.8758568963289190e-02 -1.5084541952315070e-01  3.8230441193555453e-02 -7.8334120492966647e-02 -3.7984624104362950e-02  0.0000000000000000e+00 -2.3268796152100873e-01 -7.8140094185248768e-02  2.7379661377514797e-02 5.6565732154809686e-02 4.8443041231658164e-02  3.7484766680054141e-02 1.2095485628787354e-01 -2.4986842966996787e-02  3.0371148502103543e-02 8.8880260525890792e-02 -8.3378273877979855e-03  -3.8378871425689254e-04 5.0165744642200139e-02 -3.2981538146618909e-02  3.3411256821912871e-02 3.3967926751133824e-02 -7.3720794296709663e-02  1.3612600553297529e-03 3.7137258168251745e-02 -4.2016063818031288e-02  3.6634620617527140e-02 4.0966079885679726e-02 -6.9067929678067533e-02  6.5202906797543906e-03 1.9937141483323645e-01 1.4469739369217782e-01  9.1471876369868376e-03 2.2269788686347519e-01 1.1156885108590985e-01  9.6415388363196453e-03 1.6900863528667964e-01 4.1586945333455236e-02  1.4941396919071802e-02 1.4848299872947687e-01 9.8766346784650016e-02  1.1077298488905370e-02 -2.8108628966655849e-02 7.5479669981627098e-02  1.2345111981947618e-02 -2.5399594383424286e-02 7.1250535755181504e-02  7.5164708546698929e-03 -1.2289142759756620e-02 7.2587295270481064e-02  0.0000000000000000e+00 -7.8577101442193376e-02 -1.5828011514732503e-02  1.6771831591237508e-02 -1.9739547448601069e-02 -1.2069603171734281e-01  1.9612054114248705e-02 -4.3215887099526319e-02 -1.3115102390207134e-01  1.4680452499357103e-02 3.8522854783827492e-03 -2.5129567201650554e-01  0.0000000000000000e+00 2.3604332094543837e-01 7.0023321486501422e-02  2.0101865969747224e-03 2.2941378694220110e-01 9.5295495067659455e-02  7.3413840942223420e-03 9.5081005420458192e-02 2.3947528433630536e-01  1.6778192184130934e-02 1.1203098903250308e-01 9.4673590468458246e-02  2.5662696986580774e-02 1.1128280258068628e-01 1.9005707611093992e-01  1.2626292535130349e-02 5.8837410880057006e-02 8.4734126036741422e-02  0.0000000000000000e+00 1.2399906440920476e-01 2.4209182622881423e-02  0.0000000000000000e+00 1.4061558579070527e-01 2.7065777960685031e-02  3.4050997089118372e-02 -1.3963935742657285e-02 -9.6695610419062467e-02  6.8820648579885424e-03 -2.7663173198404958e-02 -4.5417489255491057e-02  5.2626185226874638e-03 -3.7035057915752196e-03 -6.0368841449020896e-02  1.0718882489020120e-02 -3.2275962481922715e-02 -4.9863639569604268e-02  -6.4967965879323035e-03 2.0645668065578118e-02 -4.0898493967391168e-02  -2.8067851220541788e-03 -1.3051823618937244e-02 -5.7014219892902326e-02  6.4254498986760153e-02 -2.1549148191352056e-02 -8.6313941921732279e-02  7.8740742183580417e-02 -1.7464247024788737e-01 -6.3253143669929485e-03  2.8549965551887799e-02 1.7815591079760384e-02 8.0111638866099996e-02  9.9820917102569046e-02 -1.1542281607424398e-01 8.3155727378087518e-02  9.9294682455563603e-03 4.4383511383276834e-02 -6.0485315456373770e-02  8.3961867115530733e-03 6.4709885761080652e-02 -5.5700570907686667e-02  1.4576914691280181e-02 1.4168371741121080e-01 -3.5521596203670541e-02  2.1818301415899809e-02 6.8631180456133659e-02 -6.6265569369781563e-02  0.0000000000000000e+00 5.2273291280776457e-02 -2.2755800847310667e-01  4.4993670925246405e-03 5.3633192023990146e-02 -2.3637452892182520e-01  6.2790074348764713e-02 -1.7274503525312543e-01 9.2702441454033099e-02  2.7213813696922873e-02 6.2259501795898835e-02 5.0816255486098243e-02  2.7734337113952887e-02 -7.0214166755933435e-02 8.7997300493478897e-02  3.0407343702968506e-02 4.8650035016771620e-02 7.8642604148516329e-02  1.9270775089236955e-02 -4.3530362023523179e-02 -2.1655705890439598e-02  9.1044482354428486e-03 -4.3060251512996701e-02 -2.4355897074518931e-02  5.7369753386250152e-03 -3.6879080550600137e-02 -1.5525727035781183e-02  4.4365340242689212e-02 -1.0092380062328518e-01 3.2595360475391411e-02  8.3926936992531394e-03 -1.4969518264478585e-01 1.1104283246184110e-01  3.1129576487559051e-02 -9.2439593286499575e-02 4.2979772989324899e-02  3.6184456022592008e-02 -1.1913016297200927e-02 8.4967306101720277e-02  2.4490307349114393e-02 -1.1322522498513030e-01 5.2096577905535228e-02  2.8382717521135629e-02 -5.6039168507624561e-02 5.1626213523047006e-02  1.4028195377199201e-02 1.5164777878738775e-01 -1.8595886139677112e-01  1.3631836873457454e-02 8.9294106260431036e-02 -1.2218555918836210e-01  2.3006223052540486e-03 1.5778134564260790e-01 -1.9063379109927373e-01  8.2367998802916620e-03 1.9396293517685104e-01 -1.4977829504193393e-01  9.9394030345422817e-03 -1.5464834431530827e-01 1.9523204662755986e-01  2.4204062943432244e-02 -7.7716043301527135e-02 2.3099497628701338e-01  3.2158316350432328e-02 8.6582359369157216e-02 -3.5107742316432620e-02  -3.9816138696121550e-03 4.1057473663788473e-02 1.1773874429421368e-02  -5.0008384294365554e-04 6.6748900155427254e-02 -1.6558653184799859e-03  5.3212769421295270e-02 -1.8116303404600537e-02 1.1469559291896718e-01  8.4392757990797082e-03 -5.1502869877997563e-02 3.0300165036336178e-02  8.7841859371615167e-03 -3.7242261060653467e-02 1.4825468720369248e-02  4.3336583574460651e-02 -7.1719432114093262e-02 5.9098398496354551e-02  1.9254151761176749e-01 -5.5520142222799301e-02 1.3490600620769387e-02  6.0014933611797029e-02 3.9662729484356951e-02 3.3223257022744736e-02  4.4828710408102754e-02 -4.7733563942910416e-02 -1.0006286011575882e-01  7.8022566191118609e-02 1.7320621641358369e-01 -3.5961297937352798e-03  2.2186499627225915e-02 -3.6305647320946946e-02 8.7447345681857649e-02  1.0520531370465757e-02 -3.3963585166878606e-02 6.7730911138441693e-02  -4.2316422191435304e-03 -4.0384204690782244e-02 6.1659557166531168e-02  3.1724341846119608e-02 6.4697354050619479e-02 -4.1196175021241808e-02  9.4946414342760924e-03 -1.0362096806961661e-01 -3.5082951438450520e-02  1.4506303940444540e-02 -9.8359432887774295e-02 -8.8665132436601235e-02  3.6167532036974315e-02 7.4913898389430342e-02 8.3642914289818286e-03  7.1376062976086976e-03 4.6095136895819150e-02 1.3957223110709146e-02  1.2270791526036761e-02 -5.3153695260547640e-02 -3.4668148243621924e-02  1.1609550870864600e-01 -1.0212195805528597e-01 -7.9894895850535413e-02  9.8102089711048904e-02 -1.4715059782257139e-01 -5.0018304334378906e-02  1.0506838641305573e-01 -1.3676209481532989e-01 1.8616741597007047e-03  9.6650844598118874e-03 8.5147668591891504e-02 4.0601483021073845e-02  -1.5738510037569659e-03 5.7916185758764137e-02 4.9656819109162746e-02  -1.9955419891061490e-03 5.8238825618415223e-02 4.0750775531775613e-02  4.5985461462587224e-02 -2.1331623405586594e-01 4.3493943961241142e-02  3.5130239134451034e-02 -5.6444779175097978e-02 7.3800481699861975e-02  1.1710868034859080e-02 2.5753320376592656e-02 1.0771197552480467e-01  1.9079858996858177e-03 4.5848069431457188e-02 5.3241167410191075e-02  1.5750487716917234e-02 3.4878337654173260e-02 1.0293780461060749e-01  -4.1381279351802684e-04 6.1726185639013768e-02 -2.8575002926097479e-02  1.9652776596597418e-01 -6.4364685222752682e-02 -6.1770615124444664e-02  3.7005630626309592e-02 -8.1591831013718169e-02 -4.4496954715634272e-03  1.0550179067376670e-02 -6.7921498010961229e-02 3.3616081063857972e-03  6.7624934750340239e-03 -5.2347684055300762e-02 -9.7965366365173490e-03  1.2899912438558193e-03 -3.7391674651776501e-02 7.7471627505711861e-03  5.2705242411491661e-03 2.4881784799943929e-01 3.6108233965983616e-02  1.5641222098529577e-02 2.4442510076726920e-01 3.2951619600568131e-02  5.6325248727186359e-03 1.7419787518368582e-01 -4.6505669154347394e-03  7.2977202125267529e-03 -7.6308923069764709e-02 1.5083491914539379e-01  1.1036782276284038e-02 -1.6046705279799434e-01 -1.8120413855485018e-01  0.0000000000000000e+00 -2.4076584518892816e-01 1.4865314478410094e-02  3.3914077266717214e-03 -6.2456110190855015e-02 -4.5248079516878259e-02  8.3262618649580372e-03 -9.7922384095519201e-03 -1.6314621526867926e-01  3.9846578262308231e-02 -1.3024712599070370e-01 1.8465047751978955e-01  2.5292237631351518e-02 -8.4128459223242927e-02 -8.3050953622650428e-02  3.7258434442458124e-03 -5.0279355781756276e-02 -1.4718236323953700e-02  5.1410468214267103e-03 4.9093043153951042e-02 3.2109281532409613e-02  1.3405391858438622e-03 3.9924764963330424e-02 3.1614074524420450e-02  6.2008107267518646e-03 -5.6720688623034698e-02 -3.4784853664595668e-02  7.6372391721452578e-03 -4.9827974169363964e-02 -2.8863678308965041e-02  3.5516367206226473e-02 -8.0786927966401245e-02 -5.5109800175573466e-02  5.0829675058489121e-02 -6.6969047004740559e-02 -4.7639915824281329e-02  9.7303783343469119e-02 1.0012002006052874e-01 -8.5643001266303156e-02  0.0000000000000000e+00 1.7252244765519623e-01 1.3108792121319293e-01  0.0000000000000000e+00 2.0992988504414542e-01 1.4331945783892050e-01  5.6657667622507138e-02 2.1969151169498310e-02 -8.8384589991464216e-02  4.3436075875931707e-02 8.0659056167280932e-02 -8.7489267281717922e-02  3.3720955373517263e-03 3.7627197692433445e-02 -5.3754655579829815e-02  1.3809945360456707e-02 1.6120249282423837e-01 -7.4580891045967004e-02  5.2891696846158714e-02 -2.0416400125445963e-01 -4.8141474806828642e-02  3.2964554430477896e-02 -5.3588526223480967e-02 6.1753159857127073e-02  -1.0422921705725402e-02 5.4186526910274216e-02 -1.3054452146544536e-02  -4.1132253199987522e-03 -3.9266246084299655e-02 3.1252296071169382e-02  -3.3066567426935489e-03 2.8199187393066146e-02 4.1839123885178242e-02  -8.6289305361146179e-03 1.4342124154811207e-02 5.0905730948388406e-02  -8.5556150775348214e-03 3.4808762982311454e-02 3.4936563719840379e-02  3.5276072655342286e-02 1.0558340485877252e-01 4.6907947902948145e-02  1.5745478564260457e-01 -6.2130099968645422e-02 -1.0626160669168032e-01  4.0251934638857151e-02 -9.4359186963044003e-02 3.8094380214725790e-02  2.4457658065054934e-02 -2.3914818031384941e-02 -8.3496894302130253e-02  1.8855431192436243e-02 -2.4403317029208740e-02 -