<?xml version="1.0"?>
<VTKFile type="UnstructuredGrid"  version="0.1"  >
<UnstructuredGrid>
<Piece  NumberOfPoints="562" NumberOfCells="2167">
<Points>
<DataArray  type="Float64"  NumberOfComponents="3"  format="ascii">1.368988780486386 -0.3330614804626422 0.3812091262482924  1.457971735921389 -0.1022985678317614 0.3848351862271924  1.610427907917255 -0.2543337204802068 0.5283220094529932  1.517018421924314 -0.2975870322441377 0.2373535790744415  0.2896649584838891 -0.6565336317944969 0.3023309575633568  0.1476062501325057 -0.7596307241376263 0.3283146094026839  0.2103887490757956 -0.916837934661527 0.3815037813901131  0.2689768990101102 -0.8331508488021908 0.5326326663736717  0.9156822098122387 0.1728678968738864 0.3547279359267569  0.9955038627747099 0.1533306194452782 0.6087026577562188  0.7890673547573852 0.1092600253823605 0.4080960165386402  0.9145731457487908 0.02582743292350364 0.3935106194697764  1.555529446910997 -0.5403673213763167 0.3112575692626874  1.348103006996482 -0.462351674863219 0.1749673809371412  1.400987129938871 -0.69735066861689 0.1355899121124687  1.379596868832529 -0.6110590497219095 0.3769781373204191  0 -0.4990262892337586 -0.03118914320056031  0 -0.7290746446371459 0.09885523113658878  0 -0.717672921293292 -0.1906601281732726  0.1968984162950436 -0.7040029471989069 -0.07369861360184334  0 -0.04626762634821223 0.7372759069896635  0.1747349115361219 -0.1710428392996126 0.8075209349320995  0.1736439618246974 -0.1962945897661325 0.6287261280994423  0.1554956487469918 0.01915161770726388 0.8205218561784148  1.468118261285947 0.4388895086210086 0.1612631929613552  1.314649208445651 0.4683262063503433 0.04261620133015324  1.344984587319364 0.2109573947886681 -0.02958325590058262  1.313873754896346 0.1816089619152257 0.1471166805105471  0.8054134969450556 -0.533449770498696 -0.3926139635083312  1.023959850515393 -0.6045695018332022 -0.2205179401063885  1.05215698719499 -0.4565551953633328 -0.3958586963103667  0.8906623628738856 -0.3599786025326254 -0.1746980748537972  1.697689701537584 -0.1214082871572868 0.1246812640999428  1.488464593112258 -0.01630978270888243 0.02506236650239546  1.430421324362075 -0.1422530463333789 0.0006438225420573964  1.443375672974065 -0.09622504486493764 0.09622504486493764  0.7321510998862281 0.5624492232270197 0.3646846381716035  0.9239002426432321 0.3480246702761787 0.1811782883685  0.7490852309803118 0.4095827285081708 0.1339143819021366  0.9285858048943815 0.6335571890886311 0.2734941480292951  0.5604589232358378 -0.5698201261526246 -0.445758982164192  0.6089524280343109 -0.7218043571025563 -0.2041610728153083  0.6992001125134369 -0.7541456942161303 -0.5502812588103354  0.6274724868209266 0.4419785778654846 -0.5250198354585243  0.8756473641379455 0.3468289673768704 -0.5629197215258924  0.67802877664681 0.1808686458692327 -0.4046923641025996  0.5747192133026287 0.2418214339106003 -0.6661394725993455  0 -0.05589422902377143 -0.4966102514551253  0.2056253598613783 -0.1053038618535594 -0.6787933827793691  0.1556038154442484 0.06282062757538044 -0.6543309982444776  0.2724660772724383 0.01271359915602951 -0.4910330623919412  0.9865780311818615 0.5347283976096202 -0.3161606543928742  0.8204442367782485 0.5439521650280197 -0.46835255331516  0.8298883357700151 0.2747691377838339 -0.3083728461704535  0.6862435664967209 0.3812464258315117 -0.228747855498907  1.177314513331318 0.2155896063490769 0.2140622858922932  1.267656842582551 0.5005914574877968 0.2726043363799996  0.5728594645233351 0.3135209056411565 0.5449126792957779  0.5106867385450642 0.5036153923917321 0.4965240972019211  0.7698782860739618 0.3545773464498151 0.5878168661371025  1.257062485956698 -0.4638359972454 -0.342956295722521  1.188194666541641 -0.2467563208328611 -0.4932880249876783  1.208812547869822 -0.2451038235802088 -0.1523648506518715  1.405543018003129 -0.3155823461555193 -0.3144549970062264  0 -0.1321637113190494 -0.9912279018522304  0 -0.3021402933326705 -0.9528694918273042  0.2240193167333228 -0.2163747517189394 -0.968604487305365  0.1588608620926228 -0.2417277328284706 -0.7863213987186402  0.234290723282165 -0.4158101367292431 0.6068160964348613  0.336171426774712 -0.1961275532959101 0.7074104293225126  0.2157572393158068 -0.1977293037481581 0.4531390059122784  0.3402759051114709 0.1630546516396377 -0.7060477597699854  0.1632882031789302 0.196780254177258 -0.7862562160633888  0.231029003331308 0.1880338449615072 -0.4559977997563014  0.4728863797400071 -0.4933154510626057 0.5304985100819815  0.187854599331762 -0.6281900592232541 0.4987253373128265  0.1504625078742185 -0.4631455710889698 0.4631699097377626  0.5053019851007623 -0.4639188236666469 -0.07333804255252858  0.5526823878021767 -0.6967835074188571 0.215903246388164  0.6541336653852354 -0.7283429953560903 0.01682686734495902  0.6106765895285129 -0.435572044232048 0.1342135044502026  1.287900750276439 -0.4687881345125656 0.5967914885117886  1.473254424964647 -0.2014289120459823 0.6388974134251688  1.252201609832917 -0.1994817872140489 0.4924873900544187  0.6933873765617349 -0.4558378836670255 -0.5791550267835122  0.4866071064794875 -0.3834461891956515 -0.6005511129213282  0.6019697230687768 -0.6242818145703938 -0.7168889634012832  1.902820210771035 -0.06211515387208391 -0.2891430129447606  1.990339083299429 0.001064238785733084 -0.07652382797423923  1.724478368935762 -0.003788849933621816 -0.09935623650575776  1.954875178599839 -0.1249628659413422 -0.1581861500923273  0.9809979007020542 0.3576737082789349 0.535667969994543  1.241639713161487 0.2329691467692865 0.4709274800730408  1.03542332926206 0.2261833785676189 0.277619257236822  0.844968024044826 0.2915591042812161 0.85479271387891  0.9643254804467414 0.1075471943400586 0.8675308624173648  0.7528609021968682 0.08903098632416863 0.6868333670574929  0 -0.2092988896484911 -0.7083966808149078  1.404920008928814 0.3372989555460403 0.316767914436192  1.004219460199691 -0.2737979137568052 -0.4388250598374921  1.180873089276474 -0.4621305164745083 -0.6560168552866585  1.053305258761655 -0.3284868324358208 -0.7801286865200052  0.9712979390145692 -0.5110446369696806 0.4327235545709323  1.146293004560022 -0.6668284527145589 0.469882080380535  0.8963334118470608 -0.7310840957918627 0.5111265403121084  1.08206659020357 -0.7596894074461439 0.3528958016823166  0.8015085840467554 -0.3389768733860401 0.6685991538206634  0.925104953366791 -0.4648901631989753 0.7519021955945258  0.9984935472219151 -0.3065996581170283 0.5499211474208088  1.002288197777214 -0.2792071613298824 0.8153893475416765  1.215846416214816 -0.2524645935340363 0.7497327115816464  0.3024217308764339 0.4448958319181652 -0.8808605755070491  0.390139049844082 0.2930948946191007 -0.9351790364388617  0.7478274009820868 -0.4286314222864522 0.5038265581755443  0.2148561413125 0.491329266113953 -0.05528733303340339  0.2309383938052318 0.714092978138881 -0.2036113182046372  0.1975535218752708 0.6794042289099913 0.05518288617085648  0.3761572698058325 0.4709053903224183 -0.110071861452686  0 0.5090940372412278 -0.5349460340386839  0 0.5350603504932784 -0.8430433168771743  0 0.6738578937333988 -0.737915259701458  0.164109593248377 0.5761575785324918 -0.5890928788615022  0.2475029747273103 -0.4561046932550408 0.8800394901604827  0.3694925429576245 -0.5958501646405832 0.7791131291684588  0.4406799393760092 -0.3650559370457628 0.6810505410128649  0 0.4382264083498228 0.5937380410910144  0 0.7379152597014565 0.6738578937334002  0.1559289910125653 0.445628518864029 0.6984925326213108  0.2324810536730123 0.5213808955010337 0.5258435644279391  0.3555983309770547 0.656027019032849 0.3461651671211329  0.2458237569105728 0.8801511092168622 0.4561636277282752  0.1607954010233367 0.6785216544507058 0.4667873694261923  0.3826204414382912 0.7779301383454942 0.5949541429760784  1.52119605566691 0.1993844535737337 -0.3296462252473032  1.414311204796628 0.3898129177969151 -0.2057175795712648  1.35043553368913 0.31412477587753 -0.3988690910712985  1.281185985486842 0.1662780899176228 -0.1943758563769023  1.099075518775129 0.05947806630170303 0.3306302206363526  0.3679939443262019 0.3447617450768622 0.6523888179221276  0.4109508094888962 0.2773549013757027 0.3912230928899285  0.1373126243972625 0.5009352089527304 -0.4461785342859961  0.2664596187693265 0.6010832976391717 -0.4365657049749609  0.2179946197840175 0.4409807484602174 -0.2220003033063632  0.2617145123926756 0.3390154592910617 -0.3562749789872797  0.5824068775984312 -0.3170408450840759 0.3306350426033773  0.7199893230774794 -0.3705530655917506 0.2326552719422485  0.8358295522502738 -0.2669244509736641 0.3143056243869983  0.5587150980897445 0.6294294572528504 -0.01623015267248071  0.753690685110203 0.6532057608559532 -0.2369277096202369  0.7001301874755437 0.7550693058622343 -0.0524082716182921  0.6800782824703502 0.4417054734682031 -0.04452076045795449  0.4884308328800496 -0.9272425338669441 -0.2789182923255702  0.3906764030666174 -0.9712790424584049 -0.1262145572896986  0.6009334315497298 -0.9480231963115218 -0.09890104373476166  0.420071318585673 -0.7193185330298141 -0.02275610742170561  1.385707654592962 0.3976065221960926 -0.5961074699430042  1.219420193990472 0.4625196146528674 -0.3667717582939762  1.149364473949646 0.3130412125134983 -0.4806343490178561  1.195708172099174 -0.7474690340482983 -0.2799311705246049  1.219932523946796 -0.5119522484128803 -0.1401161375153302  0 0.4628593543202276 0.8855632312882982  0.3015827308425723 0.3699196515636318 0.916118113296736  0.2831250486531117 0.5320147666868361 0.8321945108773773  0.3825795555914422 -0.6690296309761865 -0.2952055242879837  0.4043090205097222 0.4000926521875504 0.2655017005394236  0.5978414449389082 0.3237928842626442 0.3209363851519929  0.2645148779899891 -0.338943586656435 0.3561994752880429  0.4219521826235639 -0.4004970037301178 0.2625370852546315  0.2094134450411068 -0.427547835839946 0.2479337980438358  0.1857857161792982 0.4082826524643675 -0.7114865320202091  0.4350093809141001 -0.08779074384838936 -0.7057378089671015  0.621
[...]
<PointData  Vectors="state-0"> 
<DataArray  type="Float64"  Name="state-0"  NumberOfComponents="3" format="ascii">1.3444011861774263e-01 2.9766926352752344e-02 4.2108851713845645e-02  1.0446140840739371e-01 2.8846610364225062e-03 5.0084429834828068e-02  2.6990108715700581e-02 -1.4773098683544425e-01 5.1858894750481653e-04  1.1869568031039839e-01 4.0232466223438235e-03 4.4490755083393486e-02  2.7674264187118446e-02 -1.2810831933898784e-01 -2.1132685820233168e-02  1.3413341931384106e-02 -7.8097258142630799e-02 7.9502381786407783e-02  1.7161737891768325e-03 -3.4693394307329907e-02 1.0178316392543578e-01  2.5117420130698082e-03 -2.1422163034792656e-02 9.4167894640116281e-02  8.0114978499095033e-02 -3.7362039772331351e-02 1.6563501667574929e-01  9.8168005977582795e-02 3.6636604375202331e-02 5.4909077765236430e-02  6.6962071102677656e-02 -7.3127105777640783e-02 1.6942326022656273e-01  8.1900754919181640e-02 -1.0141006696272860e-01 1.4018178710533269e-01  2.7387053236269315e-02 -1.0214750119407316e-01 -6.4873205569660211e-02  1.1790591703696222e-01 -4.9755109940950075e-03 5.1049937372285213e-02  3.2175237507939658e-02 -7.4677391689973852e-02 -8.8327741915272220e-02  3.8478275167223942e-02 -8.4925723123239052e-02 -4.3604523467253818e-02  0.0000000000000000e+00 -1.6535161059961817e-01 -1.0810306968436126e-01  0.0000000000000000e+00 -1.2658762486824396e-01 -8.1001736589043777e-02  0.0000000000000000e+00 -8.3418384353804054e-02 -1.1416461257173403e-01  1.5266059293077699e-02 -1.0965642299066140e-01 -1.0615714322191148e-01  0.0000000000000000e+00 -1.0501479799435719e-01 9.1343116922836448e-02  1.1998703452246700e-02 6.0997419380719254e-03 9.2425908847683050e-02  1.0524552855121600e-02 -1.6104052874326380e-01 7.2526863069230368e-02  1.6799343489923211e-02 2.8527811545133737e-02 9.4402765939534450e-02  1.4428717679353614e-01 -2.5797298515232724e-02 -9.0469244217701052e-04  9.6695811187100397e-02 5.3013870249181104e-02 -3.6445850113450643e-03  1.6453243353708802e-01 9.0034712778958859e-02 5.8202357485013977e-02  1.5106213602614219e-01 2.3417979780127423e-02 1.0993490178085992e-01  8.0612850274332418e-02 -6.0454973722946781e-02 -5.3679481637515354e-02  1.1235965469535053e-01 -4.9061406761304098e-02 1.4055145653531517e-02  1.1198498612693297e-01 -4.7273891186402309e-02 -2.6018270534846705e-02  8.8573400830181018e-02 -7.1755813362376630e-02 -1.5823814525831759e-01  1.1428537178158706e-01 5.7348533881524299e-04 4.1231704515236813e-02  1.9318101694951534e-01 -1.6263025165087371e-02 5.3073177853810029e-02  2.2399492828101331e-01 -5.8508395026419246e-02 -5.3332418356677624e-02  2.0187644757272932e-01 -6.4811024970409734e-02 3.1898485582889397e-03  6.7700674608248759e-02 5.9602667045196608e-02 7.2086359982023299e-02  8.5757861220808057e-02 7.4176960262846356e-02 1.6273035975411509e-01  5.7715598195350402e-02 1.0058294569570331e-01 1.5866662568926512e-01  1.1449634210476814e-01 5.4882595505488303e-02 -7.4774090276807856e-03  5.8323667950810669e-02 -7.4312778451210496e-02 -6.0802880117240228e-02  6.9796172364601922e-02 -8.2255494850076119e-02 6.3847227121300379e-03  2.5709836706448365e-02 -5.0196851865858733e-02 -2.1614709180206811e-02  6.3366361268563098e-02 8.5945897978541436e-02 -5.0687617477317370e-02  1.0242158493442333e-01 4.2266457133571689e-02 -4.9612905478716864e-02  5.7456751923382836e-02 1.6979228402561139e-01 -9.4428706848833630e-02  6.7484249668946159e-02 5.6316124111358980e-02 -8.0015635840395852e-02  0.0000000000000000e+00 7.2085195182933923e-02 -1.7596337998070516e-01  1.5118765694812353e-02 9.2134373987311613e-02 -1.2839534217275486e-01  1.2678831280706784e-02 1.3688002323917234e-01 -1.1038397775143298e-01  2.1001924189556747e-02 1.1228426399119186e-01 -1.6499941514406169e-01  1.0174471786903830e-01 5.9252745660784124e-02 -2.6546733936575612e-02  1.1230356741082388e-01 3.5523491224135846e-02 -5.3906901931129181e-02  7.1274611259559306e-02 1.8462407914791537e-01 -3.1265220130991568e-02  5.4235549685578081e-02 1.8956533623011496e-01 2.5691665807138907e-02  1.2283757469117262e-01 8.3068039838570910e-03 1.3849618604604808e-01  1.4510699174971137e-01 2.0611740725807647e-02 -2.0194696647174340e-02  4.3007132120194365e-02 -1.0961035624311449e-02 1.4144932362608822e-01  4.7828392568497677e-02 4.3028568953237416e-02 9.6271387178441969e-02  8.5855421493751402e-02 4.7704683250361667e-02 6.1625446896188943e-02  1.5372584910941245e-01 -1.6474531417097985e-02 2.5748766729299665e-02  1.2114809514603576e-01 -2.3382594801913105e-02 -3.1690424061702194e-02  1.3640910599294850e-01 -3.5233158474091711e-02 -1.2498545943567183e-01  1.3736622503254331e-01 -1.5123324732510976e-02 -8.8245749496261728e-03  0.0000000000000000e+00 -1.3426035954138713e-01 -2.9436389930782000e-02  0.0000000000000000e+00 -1.4421469736517131e-01 -1.2482734840950518e-02  5.3143839687319833e-03 -1.0122888228043105e-01 -2.9917763194396940e-02  1.8764172589669569e-02 -4.7801902307798280e-02 -8.9441054003306542e-02  2.3584413210352147e-02 -1.1769177260756014e-01 4.7149514130568330e-02  3.3221491322068045e-02 -8.2122992121321611e-02 7.9431615668008104e-02  7.2052578069560285e-03 -1.6508247350259028e-01 1.0478665505675276e-01  4.1205905525982030e-02 7.5689041297192713e-02 -8.9060737833504280e-02  1.9361143649661110e-02 2.6371522824174243e-03 -1.0302765012518242e-01  1.6986092803906644e-02 1.6411514930655793e-01 -1.2346978411527587e-01  4.7106541364645607e-02 -9.1437934285720820e-02 5.1766785322973234e-02  1.8425330703632919e-02 -7.7045027419946233e-02 7.1933769249939022e-02  1.0511255356973274e-02 -1.7953122182792730e-01 -7.5892888577612852e-03  3.8475110116508719e-02 -1.4792381564404536e-01 -1.5250116741105282e-01  5.8540166366499731e-02 -8.8661743149719696e-02 1.8828683860845033e-02  7.1092469557311203e-02 -7.7540140938080079e-02 1.7418763982005189e-02  4.9860763916115956e-02 -1.9008937810447682e-01 -7.2327852075210516e-02  2.4074362218757858e-02 -8.9485433267298090e-02 1.5004756929846998e-03  1.9948678175660969e-02 -1.2097685339878017e-01 2.7586768049548335e-02  1.1280537945895076e-01 2.5810782226903535e-02 5.0135242859977856e-02  8.0338932206584224e-02 -6.4972504284189644e-02 -3.9802342073136272e-02  4.0128161191299597e-02 -3.0443059056954574e-02 -1.0746969663743847e-01  2.0319436839256362e-02 -5.6236329107101857e-02 -3.5759432554108711e-02  2.5624159715258724e-02 1.3642898659536290e-01 -9.0584209387130826e-02  9.9700275356804063e-02 1.4524983216517245e-01 -1.8971397337022959e-02  1.2813393548814456e-01 2.1946845586089836e-02 2.7456982814869659e-02  6.1355191283798925e-02 9.6937293647075679e-02 -8.8505165967204980e-02  1.0502064436095077e-01 5.1640323114234103e-02 3.4478493926835621e-02  1.0685633855196973e-01 4.2217882840762590e-02 2.9461293208391907e-02  1.0294778024387292e-01 -3.8211182264752414e-03 1.5719080586988204e-01  2.0726148691713710e-02 -2.3242868670113638e-03 5.2162387228147450e-02  2.3015541784860233e-02 -2.8150475644470187e-02 5.9779704371032902e-02  8.1423332175369179e-02 1.7094821794418673e-02 7.6066802136664488e-02  0.0000000000000000e+00 6.0213938256254325e-02 -1.3204487213485241e-01  1.2719006633812563e-01 1.6254214736255400e-02 9.6830834553123732e-03  8.0391691676593338e-02 8.5855897081603199e-05 -1.1108483105631825e-01  4.2630893080958673e-02 2.7507789255840624e-02 -5.3553754224236062e-02  2.2947677280832419e-02 2.9475163841391861e-02 -5.8054159547736586e-02  1.0776642770677893e-01 -4.5767221458344713e-03 6.6079794048906418e-02  3.6982675881563669e-02 -8.3321947581257050e-02 -5.7008254695692520e-03  2.1075250662312021e-02 -6.1163092731889059e-02 1.3679854584132465e-02  3.6877384808064718e-02 -5.9655764983803296e-02 -2.2023399933966709e-02  9.7410130764605543e-02 -8.2465035677214416e-03 6.8076203736922081e-02  2.0631906048061199e-02 -6.1589711026996861e-02 3.4619281056677463e-02  9.3942865852702076e-02 -9.2582984950551478e-03 6.7150521315688855e-02  1.6833888734134436e-02 -6.2304747990268083e-02 4.3147805931677559e-02  1.5000953142361714e-02 -8.7274359487183831e-02 3.7177695470606724e-02  -5.3107968998586004e-03 -3.2265971135992881e-02 -8.4325034764055284e-02  -8.0792984396822493e-04 -2.8425112264765268e-02 -7.1667149924845741e-02  7.2336957844114327e-02 -7.4660815076001988e-02 5.6606820364112652e-02  1.1014176650586242e-02 1.7213324860556134e-01 8.5622568392005355e-02  2.1064092483117403e-02 1.2033360995039503e-01 3.2597877995168487e-02  1.4265495832999582e-02 1.0017416519534983e-01 1.2353011645177230e-01  2.4698880400093624e-02 1.8609713528313368e-01 7.4558382492648900e-02  0.0000000000000000e+00 1.4168991744566722e-01 -1.5220036712382800e-02  0.0000000000000000e+00 -9.3675069944805719e-02 -1.1462999930581044e-01  0.0000000000000000e+00 -6.8810125310044296e-02 -1.3516172678830862e-01  1.6497450061504937e-02 4.8257646421762286e-02 -8.1353286996671326e-02  1.9020079458841591e-04 3.5745009387834641e-02 9.3791022114875250e-02  3.7304658818676749e-03 4.0052969247952284e-03 8.4212733193847547e-02  4.9620749275117011e-02 -4.8387196060525224e-02 8.4321871473761398e-02  0.0000000000000000e+00 -2.6641990462682185e-02 1.4454721124361802e-01  0.0000000000000000e+00 1.2577016051091047e-01 -6.2613039636733342e-02  1.5487846304636156e-02 6.9378539877707118e-02 6.8855645885207178e-02  2.3355634292251452e-02 2.4609632623199644e-02 1.1824172007108386e-01  3.3290435740850388e-02 6.3214543616717300e-02 8.7155539549375827e-02  1.5295468207190850e-03 9.4025520218481637e-02 -3.6363150701766628e-02  1.1242465508872876e-02 9.4238623724336848e-02 3.7653419027665017e-02  6.8873929634346341e-03 7.4380432834780866e-02 -9.3289782518389056e-03  1.5019671591467196e-01 2.8164498691107931e-02 1.9081863150769963e-02  1.2121620801479838e-01 2.6709029758690907e-02 -3.0294174616736775e-03  1.5323761116889525e-01 -1.8196819352885162e-03 -2.1278352919008440e-03  1.4420611486030199e-01 1.0919517802047250e-01 -1.9365718168667705e-02  1.1345877109725373e-01 -7.5422906397256212e-02 1.3131879005726602e-01  3.8861831389528936e-02 6.8555448313088012e-03 1.1180990688272832e-01  2.4809764063857428e-02 -2.4615133300907787e-03 2.0339056056478555e-01  1.1697031672477473e-02 1.7224241182610742e-01 1.8454084924578194e-02  2.9570527887390785e-02 1.1447914138078553e-01 -1.7499396516819379e-02  1.1922281146136872e-02 1.9173818838655757e-01 1.7527216859446439e-02  1.8535376163264911e-02 1.9331529007661652e-01 -4.3500410412732261e-02  4.2768772102000037e-02 -2.0382477168142532e-01 3.4217325742180144e-02  6.2336680510490995e-02 -1.9365125412828527e-01 -2.2747329746267166e-02  7.9533883029318589e-02 -1.8238885735737598e-01 3.4597027379397315e-02  3.9415586405358277e-02 1.1604222462815340e-01 8.1112067076623856e-02  8.4874014366591921e-02 7.1532692016425800e-02 -1.8334434148911768e-02  9.1507277430918410e-02 7.6181353317874914e-02 -1.2223453948196954e-02  5.0538069713222930e-02 1.6208216276176773e-01 1.0629247777143089e-01  8.5109548190415510e-03 -7.3224091968725077e-02 1.5363952680973327e-02  1.7719905281712081e-03 -6.2577181360644080e-02 3.8233980728530938e-02  1.1464263485304433e-02 -6.1024191752179664e-02 1.1673594045762365e-02  3.6630128809162256e-02 -1.0948192560463181e-01 -4.3472409823351946e-02  3.2331013496776570e-02 8.9797616490351145e-02 -3.8375264122967679e-03  1.4287278274200907e-01 -2.3485992502141895e-03 -2.0805868363774498e-02  1.2038596300398950e-01 1.7734627309768630e-02 -3.2339806982504840e-02  3.3727485583908541e-02 -1.9422746692889258e-02 -6.8345517113884077e-02  1.0468396243252760e-01 -4.2308264395019737e-02 5.9871209332399049e-03  0.0000000000000000e+00 1.3504730233474505e-01 -1.4951104796224211e-02  1.9145333046971791e-03 7.7387853423735428e-02 3.9368443816933558e-02  -1.6747175462392125e-03 8.8594137096858941e-02 1.6065680428308020e-02  3.8235948813132498e-02 -8.4705604475000265e-02 -7.6868888734287405e-02  2.2829066384360559e-02 6.8255097207620588e-02 1.8857506286481029e-01  4.3302114474593055e-02 2.1935529843069863e-02 1.9410302496846629e-01  9.3384413571898570e-03 -2.0014718769987602e-01 4.1091639911761436e-02  2.5178649563516509e-02 -2.1057347167716312e-01 -8.6629927324229795e-03  8.3372839692304069e-03 -1.9616662269096222e-01 -1.0609573528423321e-02  2.1003685069225907e-02 1.7125756116404382e-02 -9.1371020080446036e-02  4.4782831797764842e-02 4.1405655481784334e-02 -1.1380588424042301e-01  7.2462998281685620e-02 -5.2921648375512879e-02 -2.0208825381410573e-02  8.8357192765818937e-02 1.1552953618543424e-02 -8.9689929175787761e-02  4.6950516556643687e-02 8.4589274824199048e-02 -1.8385035944104383e-01  1.1742136443002951e-01 3.4568727650675105e-02 -2.3590492145591162e-02  3.1960263396561064e-02 7.5435104424633651e-02 8.6589172737122702e-02  2.9857337838766474e-02 -5.6779657852309373e-02 3.7460227110079421e-03  3.4085463158866659e-02 -5.6142573788830238e-02 -2.1394121427190257e-02  2.3610474230539732e-02 -6.1206718534700208e-02 7.4995228355099405e-03  1.0004343835700909e-01 -4.9731937361281488e-02 4.7501079483230117e-02  6.5401922383553329e-02 7.7611163947493650e-02 2.6837704560199523e-02  1.7875724311100259e-02 -8.5529423709859706e-02 -5.8946495365244760e-02  1.3885814009509773e-03 -1.0295584454657664e-01 2.5041202730879202e-03  2.4895714694632778e-04 -8.6826280254433230e-02 -1.8899984933780929e-02  7.3740063432330936e-03 -7.2201005215354788e-02 -6.7126083001237844e-03  3.3429293576967903e-02 5.6464512921236673e-04 7.9829832474138038e-02  1.7473526729816995e-02 1.0827234602620295e-02 1.1188931972311507e-01  3.9949632286396967e-02 9.9814064446912459e-02 -5.9024246486210262e-02  8.6719936219990704e-02 7.5256782430927593e-02 1.0397481571837640e-02  8.3183801984430580e-02 1.5743920209674664e-01 8.0374710670811256e-02  1.9751011198044819e-02 -1.8818605575065636e-01 -8.6842456052803718e-02  3.9328342889092004e-02 1.9821102252276437e-01 -8.9846763020026595e-03  1.8127518747930154e-02 -1.3168015706243394e-01 -2.0990590582557957e-02  0.0000000000000000e+00 1.2557635306685433e-02 -1.9608376804669100e-01  0.0000000000000000e+00 1.0852446393092479e-02 -1.4611518570200530e-01  1.8960654836560578e-02 -1.4464497490450120e-02 -1.1426539276590360e-01  1.1339213065706861e-02 -1.2993821133980194e-02 -2.0393101226066346e-01  1.6099089448569838e-02 -1.0735900532446745e-01 -3.8836641119051117e-03  0.0000000000000000e+00 1.7333682264061748e-01 -9.1097095618766388e-02  0.0000000000000000e+00 -8.5159361717252371e-02 1.3023065934250658e-01  4.6093330081809691e-05 -8.4322591323323662e-02 3.7878925621582293e-02  -6.9903580966373287e-03 -6.8792754575542195e-02 7.5396022753485684e-02  4.9974475957718964e-02 1.0281718679438666e-01 1.1003734955437420e-02  2.5546505506029639e-02 1.5181298624956965e-01 4.6649777368221901e-02  8.9524218940377435e-03 1.7225222415659550e-02 -6.3522453818412664e-02  7.7024263666697936e-03 7.4922731083261390e-02 1.7715079000168205e-01  9.6605500357013832e-03 2.7656432611916668e-02 1.7301223612946889e-01  2.2379465597229135e-02 5.8540487313301151e-03 -6.0134990950372093e-02  2.5992934359794852e-02 2.9579297338529442e-02 -4.8318785458706333e-02  8.7551740347345433e-02 4.3163535926231615e-02 -7.8668822162094670e-02  2.2527093606022071e-02 7.2347624253681457e-03 -5.3449149990160080e-02  0.0000000000000000e+00 9.7044357402185311e-02 -1.0078259833777145e-01  1.6065642166930887e-02 8.2562480823820256e-02 5.7428309104128314e-02  7.4050700653596636e-03 -4.1079403431238858e-02 7.0604582865475274e-02  1.4430616989863608e-02 -4.4593033682577290e-02 4.4794587453621949e-02  6.8413036440272773e-02 -5.8762247265873667e-02 5.3602414867752364e-02  2.4536866620097388e-02 -5.2543109589552071e-02 -2.1680376818680309e-02  2.2491102383146260e-02 -5.4648067915339799e-02 4.3095730424692856e-03  8.4832006325562023e-02 -7.0427375673879439e-02 -3.6885901643139902e-03  6.8197203528203326e-02 1.9670400565151267e-02 8.4280917286667215e-02  3.2655353209593702e-02 -1.2223076490286118e-01 1.6280606514634802e-01  6.0575072311372595e-02 -3.0183580980891946e-02 9.5569238316359814e-02  5.4279428113199794e-02 -6.5507521903291954e-02 7.6520723549497710e-02  4.9694551057648147e-02 -1.2815208206736767e-01 1.4982896994835099e-01  7.9465784552361918e-03 5.6740001426740004e-03 6.0337495206313041e-02  5.1563498791221769e-04 -4.8873657672641055e-02 8.5988687992001669e-02  9.5219404959086731e-03 -4.0156694173445404e-02 6.4031180089618805e-02  1.1087934802650803e-01 5.2801413020833757e-02 -1.3756813080645779e-03  8.5329503669991660e-02 -1.3985247634962743e-02 7.1740458653800104e-02  1.0006220161742438e-01 -2.9924881217464099e-02 -1.1993792748577831e-01  7.6252983726879164e-02 -6.0449709588439810e-03 -5.3144196520832571e-03  1.1304187384132698e-01 -1.9340294306833778e-02 -1.4831420477568161e-01  3.0473489940089558e-02 -2.6976411184154829e-02 6.1724090731786266e-02  2.0106187517896335e-02 -5.3604245486826602e-02 5.9716887159467637e-02  5.4761789927228584e-02 1.2512001315404514e-01 -6.2923402741023593e-03  1.7317686425989984e-01 1.2185060493627279e-02 4.2316153643665255e-02  3.0913124649932715e-02 8.4933875977752885e-02 -1.8876363976557790e-02  2.3789100788323744e-02 9.3944120726484628e-02 -3.2983341871297929e-02  1.3366398618676320e-01 -5.1946477797545788e-03 -1.6755057006500002e-02  1.5722267153488245e-01 2.5032821878062210e-02 4.0433416527992046e-02  -1.6111330646401165e-02 -1.6565930527216867e-02 -1.3830234487493109e-01  1.5644640604990056e-02 -3.7086607586632743e-02 -1.3098731873794106e-01  2.2738611818384633e-02 -6.4062375502416079e-03 -1.0522701055566729e-01  1.7359587944089899e-03 -7.6860392342296925e-03 1.4381537205201941e-01  1.0757812329507403e-01 1.7869735946215666e-02 3.3254539651334826e-03  9.5845467373484924e-03 4.5606746752108816e-02 1.5537793302916877e-01  1.1826750007514288e-01 1.6838777514754801e-02 2.4879260660026239e-02  0.0000000000000000e+00 1.2896585709005437e-01 -5.8181004451865768e-02  0.0000000000000000e+00 -1.0663525505427167e-01 -7.9654171024941739e-02  0.0000000000000000e+00 -1.0228149598816025e-01 -1.0729251838401256e-01  3.3084614691976391e-02 -5.6289157888442451e-02 1.9497610900940618e-01  4.6345259076837279e-02 -6.5580893351166791e-02 1.8649829437181439e-01  9.2099538252852393e-03 2.0230385245171244e-02 -1.0239983335870438e-01  0.0000000000000000e+00 -2.8201803097129535e-03 -1.4674359295315109e-01  5.2372534258472905e-03 4.2908174323277010e-02 -7.8506277488752468e-02  3.3844800399030803e-02 -4.7182311551201797e-02 1.0637065298284394e-01  1.2089018262872408e-02 3.1111587984878838e-02 5.5186646242151659e-02  1.1027815929275590e-01 9.0258624137539892e-02 -1.0412757115081184e-01  1.4618404832366480e-01 -1.8130993510453088e-02 -3.3036922451557343e-03  1.3109924288229405e-01 8.1946299927959071e-02 -8.4046003405696595e-02  3.1865436552509618e-02 5.7175058529005958e-02 1.4529611088032256e-02  1.5264880323986279e-02 6.1267306161353778e-02 -1.1853983822357684e-02  3.4014758793819724e-02 4.3271410587255678e-02 -2.0895470304290141e-02  0.0000000000000000e+00 -1.3887894290359359e-01 5.1212095220996880e-02  1.9929784362700813e-02 -2.1324504387900515e-02 -9.8705651839106012e-02  2.3807254190437350e-02 2.3798511325198793e-02 6.6986406697320755e-02  1.8409586561098458e-02 4.5867571631308307e-02 5.2738931608617312e-02  2.6807026360867410e-02 4.6167830805107064e-02 5.1030093714362471e-02  1.2071546511930525e-01 4.6243481843022044e-02 -2.6682608181145213e-02  1.8404100980531919e-02 6.4897796387571524e-02 -7.5263121465787022e-02  1.6482286002048492e-02 1.1260279253720881e-01 -8.4430157824225097e-02  1.3445238605800017e-01 -1.5774183206282519e-02 -4.0395766805565944e-04  9.2797784784239473e-02 -7.0264481319311387e-02 9.2023170580042227e-03  1.1101350361125016e-01 -1.0340190713567798e-01 -1.0969818233701865e-01  8.8046669374818420e-02 -1.3332420738922687e-01 -1.1614269977761021e-01  2.5456958685169638e-02 5.3481499383675107e-02 8.0103027892224163e-02  3.2503064663603830e-02 6.1206851052212137e-02 5.6202264085347037e-02  1.0364767219136128e-02 -5.7333489463063637e-02 1.6010691942548294e-01  4.1709185417093918e-02 8.5074918227902266e-02 5.7408852195066695e-02  3.4161003369469374e-02 1.4138661443240361e-01 1.4429520982765254e-01  1