<?xml version="1.0"?>
<VTKFile type="UnstructuredGrid"  version="0.1"  >
<UnstructuredGrid>
<Piece  NumberOfPoints="562" NumberOfCells="2167">
<Points>
<DataArray  type="Float64"  NumberOfComponents="3"  format="ascii">1.368988780486386 -0.3330614804626422 0.3812091262482924  1.457971735921389 -0.1022985678317614 0.3848351862271924  1.610427907917255 -0.2543337204802068 0.5283220094529932  1.517018421924314 -0.2975870322441377 0.2373535790744415  0.2896649584838891 -0.6565336317944969 0.3023309575633568  0.1476062501325057 -0.7596307241376263 0.3283146094026839  0.2103887490757956 -0.916837934661527 0.3815037813901131  0.2689768990101102 -0.8331508488021908 0.5326326663736717  0.9156822098122387 0.1728678968738864 0.3547279359267569  0.9955038627747099 0.1533306194452782 0.6087026577562188  0.7890673547573852 0.1092600253823605 0.4080960165386402  0.9145731457487908 0.02582743292350364 0.3935106194697764  1.555529446910997 -0.5403673213763167 0.3112575692626874  1.348103006996482 -0.462351674863219 0.1749673809371412  1.400987129938871 -0.69735066861689 0.1355899121124687  1.379596868832529 -0.6110590497219095 0.3769781373204191  0 -0.4990262892337586 -0.03118914320056031  0 -0.7290746446371459 0.09885523113658878  0 -0.717672921293292 -0.1906601281732726  0.1968984162950436 -0.7040029471989069 -0.07369861360184334  0 -0.04626762634821223 0.7372759069896635  0.1747349115361219 -0.1710428392996126 0.8075209349320995  0.1736439618246974 -0.1962945897661325 0.6287261280994423  0.1554956487469918 0.01915161770726388 0.8205218561784148  1.468118261285947 0.4388895086210086 0.1612631929613552  1.314649208445651 0.4683262063503433 0.04261620133015324  1.344984587319364 0.2109573947886681 -0.02958325590058262  1.313873754896346 0.1816089619152257 0.1471166805105471  0.8054134969450556 -0.533449770498696 -0.3926139635083312  1.023959850515393 -0.6045695018332022 -0.2205179401063885  1.05215698719499 -0.4565551953633328 -0.3958586963103667  0.8906623628738856 -0.3599786025326254 -0.1746980748537972  1.697689701537584 -0.1214082871572868 0.1246812640999428  1.488464593112258 -0.01630978270888243 0.02506236650239546  1.430421324362075 -0.1422530463333789 0.0006438225420573964  1.443375672974065 -0.09622504486493764 0.09622504486493764  0.7321510998862281 0.5624492232270197 0.3646846381716035  0.9239002426432321 0.3480246702761787 0.1811782883685  0.7490852309803118 0.4095827285081708 0.1339143819021366  0.9285858048943815 0.6335571890886311 0.2734941480292951  0.5604589232358378 -0.5698201261526246 -0.445758982164192  0.6089524280343109 -0.7218043571025563 -0.2041610728153083  0.6992001125134369 -0.7541456942161303 -0.5502812588103354  0.6274724868209266 0.4419785778654846 -0.5250198354585243  0.8756473641379455 0.3468289673768704 -0.5629197215258924  0.67802877664681 0.1808686458692327 -0.4046923641025996  0.5747192133026287 0.2418214339106003 -0.6661394725993455  0 -0.05589422902377143 -0.4966102514551253  0.2056253598613783 -0.1053038618535594 -0.6787933827793691  0.1556038154442484 0.06282062757538044 -0.6543309982444776  0.2724660772724383 0.01271359915602951 -0.4910330623919412  0.9865780311818615 0.5347283976096202 -0.3161606543928742  0.8204442367782485 0.5439521650280197 -0.46835255331516  0.8298883357700151 0.2747691377838339 -0.3083728461704535  0.6862435664967209 0.3812464258315117 -0.228747855498907  1.177314513331318 0.2155896063490769 0.2140622858922932  1.267656842582551 0.5005914574877968 0.2726043363799996  0.5728594645233351 0.3135209056411565 0.5449126792957779  0.5106867385450642 0.5036153923917321 0.4965240972019211  0.7698782860739618 0.3545773464498151 0.5878168661371025  1.257062485956698 -0.4638359972454 -0.342956295722521  1.188194666541641 -0.2467563208328611 -0.4932880249876783  1.208812547869822 -0.2451038235802088 -0.1523648506518715  1.405543018003129 -0.3155823461555193 -0.3144549970062264  0 -0.1321637113190494 -0.9912279018522304  0 -0.3021402933326705 -0.9528694918273042  0.2240193167333228 -0.2163747517189394 -0.968604487305365  0.1588608620926228 -0.2417277328284706 -0.7863213987186402  0.234290723282165 -0.4158101367292431 0.6068160964348613  0.336171426774712 -0.1961275532959101 0.7074104293225126  0.2157572393158068 -0.1977293037481581 0.4531390059122784  0.3402759051114709 0.1630546516396377 -0.7060477597699854  0.1632882031789302 0.196780254177258 -0.7862562160633888  0.231029003331308 0.1880338449615072 -0.4559977997563014  0.4728863797400071 -0.4933154510626057 0.5304985100819815  0.187854599331762 -0.6281900592232541 0.4987253373128265  0.1504625078742185 -0.4631455710889698 0.4631699097377626  0.5053019851007623 -0.4639188236666469 -0.07333804255252858  0.5526823878021767 -0.6967835074188571 0.215903246388164  0.6541336653852354 -0.7283429953560903 0.01682686734495902  0.6106765895285129 -0.435572044232048 0.1342135044502026  1.287900750276439 -0.4687881345125656 0.5967914885117886  1.473254424964647 -0.2014289120459823 0.6388974134251688  1.252201609832917 -0.1994817872140489 0.4924873900544187  0.6933873765617349 -0.4558378836670255 -0.5791550267835122  0.4866071064794875 -0.3834461891956515 -0.6005511129213282  0.6019697230687768 -0.6242818145703938 -0.7168889634012832  1.902820210771035 -0.06211515387208391 -0.2891430129447606  1.990339083299429 0.001064238785733084 -0.07652382797423923  1.724478368935762 -0.003788849933621816 -0.09935623650575776  1.954875178599839 -0.1249628659413422 -0.1581861500923273  0.9809979007020542 0.3576737082789349 0.535667969994543  1.241639713161487 0.2329691467692865 0.4709274800730408  1.03542332926206 0.2261833785676189 0.277619257236822  0.844968024044826 0.2915591042812161 0.85479271387891  0.9643254804467414 0.1075471943400586 0.8675308624173648  0.7528609021968682 0.08903098632416863 0.6868333670574929  0 -0.2092988896484911 -0.7083966808149078  1.404920008928814 0.3372989555460403 0.316767914436192  1.004219460199691 -0.2737979137568052 -0.4388250598374921  1.180873089276474 -0.4621305164745083 -0.6560168552866585  1.053305258761655 -0.3284868324358208 -0.7801286865200052  0.9712979390145692 -0.5110446369696806 0.4327235545709323  1.146293004560022 -0.6668284527145589 0.469882080380535  0.8963334118470608 -0.7310840957918627 0.5111265403121084  1.08206659020357 -0.7596894074461439 0.3528958016823166  0.8015085840467554 -0.3389768733860401 0.6685991538206634  0.925104953366791 -0.4648901631989753 0.7519021955945258  0.9984935472219151 -0.3065996581170283 0.5499211474208088  1.002288197777214 -0.2792071613298824 0.8153893475416765  1.215846416214816 -0.2524645935340363 0.7497327115816464  0.3024217308764339 0.4448958319181652 -0.8808605755070491  0.390139049844082 0.2930948946191007 -0.9351790364388617  0.7478274009820868 -0.4286314222864522 0.5038265581755443  0.2148561413125 0.491329266113953 -0.05528733303340339  0.2309383938052318 0.714092978138881 -0.2036113182046372  0.1975535218752708 0.6794042289099913 0.05518288617085648  0.3761572698058325 0.4709053903224183 -0.110071861452686  0 0.5090940372412278 -0.5349460340386839  0 0.5350603504932784 -0.8430433168771743  0 0.6738578937333988 -0.737915259701458  0.164109593248377 0.5761575785324918 -0.5890928788615022  0.2475029747273103 -0.4561046932550408 0.8800394901604827  0.3694925429576245 -0.5958501646405832 0.7791131291684588  0.4406799393760092 -0.3650559370457628 0.6810505410128649  0 0.4382264083498228 0.5937380410910144  0 0.7379152597014565 0.6738578937334002  0.1559289910125653 0.445628518864029 0.6984925326213108  0.2324810536730123 0.5213808955010337 0.5258435644279391  0.3555983309770547 0.656027019032849 0.3461651671211329  0.2458237569105728 0.8801511092168622 0.4561636277282752  0.1607954010233367 0.6785216544507058 0.4667873694261923  0.3826204414382912 0.7779301383454942 0.5949541429760784  1.52119605566691 0.1993844535737337 -0.3296462252473032  1.414311204796628 0.3898129177969151 -0.2057175795712648  1.35043553368913 0.31412477587753 -0.3988690910712985  1.281185985486842 0.1662780899176228 -0.1943758563769023  1.099075518775129 0.05947806630170303 0.3306302206363526  0.3679939443262019 0.3447617450768622 0.6523888179221276  0.4109508094888962 0.2773549013757027 0.3912230928899285  0.1373126243972625 0.5009352089527304 -0.4461785342859961  0.2664596187693265 0.6010832976391717 -0.4365657049749609  0.2179946197840175 0.4409807484602174 -0.2220003033063632  0.2617145123926756 0.3390154592910617 -0.3562749789872797  0.5824068775984312 -0.3170408450840759 0.3306350426033773  0.7199893230774794 -0.3705530655917506 0.2326552719422485  0.8358295522502738 -0.2669244509736641 0.3143056243869983  0.5587150980897445 0.6294294572528504 -0.01623015267248071  0.753690685110203 0.6532057608559532 -0.2369277096202369  0.7001301874755437 0.7550693058622343 -0.0524082716182921  0.6800782824703502 0.4417054734682031 -0.04452076045795449  0.4884308328800496 -0.9272425338669441 -0.2789182923255702  0.3906764030666174 -0.9712790424584049 -0.1262145572896986  0.6009334315497298 -0.9480231963115218 -0.09890104373476166  0.420071318585673 -0.7193185330298141 -0.02275610742170561  1.385707654592962 0.3976065221960926 -0.5961074699430042  1.219420193990472 0.4625196146528674 -0.3667717582939762  1.149364473949646 0.3130412125134983 -0.4806343490178561  1.195708172099174 -0.7474690340482983 -0.2799311705246049  1.219932523946796 -0.5119522484128803 -0.1401161375153302  0 0.4628593543202276 0.8855632312882982  0.3015827308425723 0.3699196515636318 0.916118113296736  0.2831250486531117 0.5320147666868361 0.8321945108773773  0.3825795555914422 -0.6690296309761865 -0.2952055242879837  0.4043090205097222 0.4000926521875504 0.2655017005394236  0.5978414449389082 0.3237928842626442 0.3209363851519929  0.2645148779899891 -0.338943586656435 0.3561994752880429  0.4219521826235639 -0.4004970037301178 0.2625370852546315  0.2094134450411068 -0.427547835839946 0.2479337980438358  0.1857857161792982 0.4082826524643675 -0.7114865320202091  0.4350093809141001 -0.08779074384838936 -0.7057378089671015  0.621
[...]
<PointData  Vectors="state-0"> 
<DataArray  type="Float64"  Name="state-0"  NumberOfComponents="3" format="ascii">2.7554690160775309e-02 3.3077382143963066e-02 9.1627184744962509e-02  2.9438946850405788e-02 1.3648133186818847e-02 7.7917907335172121e-02  2.5305591781353921e-02 -2.7388835778332935e-03 3.7616694128141247e-02  3.2565572688313525e-02 -1.8553335529150040e-02 8.2680046545730343e-02  1.2195378358143976e-02 -1.2702362126788852e-01 -3.4666299430180694e-02  5.4935267574423175e-03 -1.1578223553216876e-01 -5.2677912505304436e-03  1.0641067829398712e-02 -7.5188737379570769e-02 1.7405454850742526e-02  1.0890906747783808e-02 -6.8733171904217433e-02 3.2696484214979324e-02  6.9746052187884058e-02 -3.2495413213826416e-02 1.5786703190654286e-01  2.6843802616947660e-02 4.4519922329692631e-02 7.5324759129010030e-02  5.9084636625199825e-02 -6.2469831773179545e-02 1.6187797526532455e-01  7.2216116281667186e-02 -9.2031667700155875e-02 1.3399540358994794e-01  2.2327375950844042e-02 -2.1327879858320343e-02 2.3693020627922997e-02  2.8718195222945442e-02 -3.2177161785735028e-02 7.5465827928012513e-02  2.6782391565801384e-02 -3.6478034683562692e-02 1.5695346714702969e-02  2.3183920022045952e-02 -2.6168000118925280e-02 2.8269650715663782e-02  0.0000000000000000e+00 -1.6851890361943453e-01 -7.8909464179884800e-02  0.0000000000000000e+00 -1.2097613148084094e-01 -9.6464072130191120e-02  0.0000000000000000e+00 -7.2990817936041522e-02 -1.3272375365733541e-01  5.3975916383168362e-03 -1.0710583099415409e-01 -1.0810282798121611e-01  0.0000000000000000e+00 -1.2129708885846889e-01 9.0783488207829902e-02  8.6142561858434507e-03 -7.7865862211275241e-02 8.2619799329911051e-02  4.5504623212692446e-03 -1.4751881686113374e-01 8.1458501296010191e-02  9.5650606895981236e-03 -6.0028310723684031e-02 9.6696498519876009e-02  3.9536207322207480e-02 5.2644960989109847e-02 -5.0898460265492239e-02  3.6406097211955153e-02 9.1101582448689974e-02 -1.1263990722574944e-02  1.5095145265388513e-01 9.8925415396055358e-02 6.0909275752573919e-02  1.4222296256189079e-01 2.4745970380203777e-02 1.0925178618363011e-01  3.0694211862249642e-02 -6.2897398755876271e-02 -6.3228679321669201e-02  3.1914720656473314e-02 -6.9716469121649749e-02 1.4733168705041008e-02  3.8276351788805452e-02 -6.6043457058134414e-02 -4.0433888989065490e-02  7.8211872619602787e-02 -7.0359616541483413e-02 -1.4912441350137839e-01  9.7793028031723767e-02 -2.9771154865369603e-02 4.9627379103686545e-02  2.3767398116233918e-01 -1.5946778328408191e-02 4.7707795158721283e-02  2.2920766733006323e-01 -4.6181805394052748e-02 -6.6383446991848435e-02  2.0803299458096230e-01 -6.0884645378753752e-02 -6.9428896706423310e-04  1.7631033359819460e-02 6.3679113814703744e-02 8.1983572509755381e-02  7.1350127281822939e-02 7.3379911834523304e-02 1.5422223261200940e-01  4.7963161593159609e-02 1.0260732370450618e-01 1.4871706356091666e-01  3.0697228755592554e-02 7.6266113193992152e-02 -2.0168417041576524e-03  1.9332804553752806e-02 -6.2057502231141856e-02 -7.9522122368448453e-02  2.2497318591631385e-02 -7.6295403105176823e-02 -1.6389092863374949e-02  1.7699443414015154e-02 -4.2894609103302020e-02 -3.2880529316820221e-02  1.6805643301052827e-02 9.3833097673106755e-02 -4.4755365105509044e-02  2.9483868981627491e-02 4.7935162295726350e-02 -6.3383877631101454e-02  4.7245681133927062e-02 1.5644163056271251e-01 -9.7104260831752220e-02  2.4060936131933386e-02 7.2028045110941227e-02 -7.6975861859563441e-02  0.0000000000000000e+00 4.4895886104401560e-02 -1.7397941313280163e-01  5.6462542783820803e-03 8.8432363476381851e-02 -1.2585738130102461e-01  6.3693672427247256e-03 1.2346500378283881e-01 -1.0981179573937822e-01  1.6436945577397548e-02 8.7954435736817452e-02 -1.6268189884971351e-01  3.2241098170727858e-02 7.0612227139116190e-02 -4.4591840850148987e-02  3.5682499725505058e-02 4.9761159885670335e-02 -6.5643697788042840e-02  5.9948136357761951e-02 1.7482622139240189e-01 -3.5453489363712939e-02  4.5550569941095687e-02 1.7861233368018428e-01 1.5852982993781208e-02  1.1029949137709727e-01 8.0924125159127884e-03 1.3336558690695841e-01  4.3721517383141804e-02 8.8088912263767069e-02 -4.2359697705476325e-02  1.8964383502783715e-02 -9.0153901203749651e-03 1.4302755087226815e-01  1.2003520893183647e-02 3.4894504157285400e-02 1.0735433425336544e-01  2.7028347765929776e-02 4.5982699583921836e-02 7.8515546626718419e-02  4.5159163194305171e-02 -7.1801548885195687e-02 2.3191058479927008e-02  4.0392946672234122e-02 -4.5176551514928068e-02 -5.8069488398607823e-02  1.2727388942488735e-01 -3.0064898747563233e-02 -1.2926131718314027e-01  4.7950162783297029e-02 -6.0611467812980602e-02 -2.9093508039415024e-02  0.0000000000000000e+00 3.3462235310409631e-03 -5.6960390092268220e-02  0.0000000000000000e+00 -1.1590350285186202e-02 -6.5879646818038901e-02  1.1488984679889911e-02 -8.2438824897828767e-03 -6.3480365885556306e-02  8.9345547579185464e-03 3.4710872628510719e-02 -1.1728560220927146e-01  1.1147483360374449e-02 -1.2940059374515353e-01 3.3507044581762145e-02  1.2053116402164341e-02 -1.0054596212725250e-01 7.1967239980127953e-02  5.0328931534694109e-03 -1.4190310156216776e-01 1.1570913402860263e-01  1.7495734148280127e-02 9.4172049468767019e-02 -7.9150713145688875e-02  8.6396574308702980e-03 7.9131064291142056e-02 -7.0888017461604877e-02  1.3430624476353736e-02 1.4160662840894994e-01 -1.2840791571260668e-01  1.8208375857575350e-02 -1.0341859472788777e-01 3.5800161731515373e-02  6.8237429867868916e-03 -1.2333118159036763e-01 1.5102653019123767e-02  5.3387539763085998e-03 -1.6848180788999967e-01 5.4361602550661902e-03  3.3278677285904217e-02 -1.4643374088496708e-01 -1.2928274304059656e-01  2.0974036797524718e-02 -9.4334303578670967e-02 -9.5435113501239740e-04  2.2787673898601882e-02 -8.1729031386387596e-02 -2.9287215191248136e-04  4.5016981128391698e-02 -1.7958312383114367e-01 -5.5581410547959204e-02  2.0702345554717231e-02 -2.5461066272473840e-02 3.8150826359916040e-02  2.4365355672092075e-02 -1.0055759573674081e-03 3.8059212925764731e-02  2.5858334903316734e-02 2.9497272337227189e-02 8.3499338561152520e-02  2.6724212536514691e-02 -5.7191106594281775e-02 -5.8663410157203062e-02  1.3083338281059290e-02 -1.5495004768418761e-02 -1.1421996653813736e-01  2.1416177642944449e-02 -4.2727776628433335e-02 -5.5527347843106915e-02  3.5069132384422635e-02 -1.9030574449149476e-02 -2.6793984038509848e-02  4.6505215519168933e-02 -9.3547106846754678e-03 -1.4750424936652068e-02  9.8313889416570585e-02 3.3907712289837598e-02 -3.7865192893440862e-02  2.9693849002554069e-02 -2.5793186226798086e-02 3.5800141301433035e-03  2.9636343894604247e-02 6.8531389713216082e-02 4.7334343166277694e-02  2.6457162531231426e-02 6.6282572778879612e-02 4.9596202356187891e-02  8.9659821659166070e-02 -3.4360613746676805e-04 1.5171181380850859e-01  1.6663202419409547e-02 1.7706233396689065e-02 5.0749761411188081e-02  2.2683110878492466e-02 1.0213166582555555e-02 6.1742134334681190e-02  2.5089866722145884e-02 1.0874437542649920e-02 8.6333413771876200e-02  0.0000000000000000e+00 7.7195660931524787e-02 -1.3100054722613233e-01  3.8043057507919163e-02 7.2149046797464006e-02 1.1252215010734522e-02  4.3844707035548415e-02 1.2539823697813475e-03 -1.1904893102996503e-01  2.2661093284667328e-02 -2.4979400342624438e-02 -2.4542926964385821e-02  2.1469616727232022e-02 -1.7994933242624196e-02 -4.0433402081625353e-02  2.6821287515000871e-02 -1.0902601956397967e-02 8.4426875700535600e-02  2.4993016072566255e-02 -4.8653487560617589e-02 4.4793270730039199e-02  1.3817199861520945e-02 -5.0380030591938477e-02 3.5248109881677543e-02  1.9113370460000386e-02 -4.3885692356108459e-02 2.4649610771757577e-02  2.7238784625043252e-02 -1.0873527339805433e-02 8.4516035835173808e-02  2.1421387767986789e-02 -3.5938987831098175e-02 5.9540740850371164e-02  2.5093721958708525e-02 -1.5631094316436035e-02 8.0979139675892431e-02  2.1080645146730664e-02 -1.5287993408316035e-02 5.8896706452060250e-02  2.3144995158729781e-02 -1.1202857649082890e-02 5.3565959514237010e-02  4.3593183038594654e-03 3.5265889771175694e-02 -5.6211018157592357e-02  9.6425417278218455e-03 2.8866631979043548e-02 -6.2693774884356540e-02  2.6692484152606524e-02 -8.4027611884765818e-02 5.8618554991984498e-02  8.7967005795149978e-03 1.6949448457052832e-01 6.4584075421962220e-02  7.2785370727235432e-03 1.1988280718348301e-01 6.1083990130268676e-02  6.0860347571916372e-03 1.0226471554821130e-01 1.2075973192626160e-01  1.9421614915382836e-02 1.7924946410219472e-01 5.6252757742833503e-02  0.0000000000000000e+00 1.5923484132241811e-01 2.4110289027349883e-03  0.0000000000000000e+00 4.9515240304782174e-02 -6.0654847609190314e-02  0.0000000000000000e+00 6.0321367291886537e-02 -5.4134879066714901e-02  5.1708259616906650e-03 1.1282499746396507e-01 -3.0472164249698057e-02  4.1959944115490403e-03 -4.2629148113142314e-02 6.1916233537852139e-02  1.1833952217853575e-02 -5.0580823775444976e-02 5.3819983318139628e-02  1.8840675679137157e-02 -8.1253002167063645e-02 6.8778581674092343e-02  0.0000000000000000e+00 -3.5275992953341398e-02 1.5522611640631190e-01  0.0000000000000000e+00 3.9498440293242731e-02 5.0494261843497618e-02  6.5415440232491654e-03 -1.0631801048658280e-02 1.2677508757010703e-01  9.7009200947783085e-03 4.8780579302810777e-03 1.3106095676480203e-01  1.0617435767807793e-02 5.0659983175558643e-02 1.0804525787649900e-01  1.0701290809415696e-02 6.0342779655468026e-02 3.9928608653582658e-02  3.4637061879258138e-03 4.7670672917510100e-02 1.1498588310201652e-01  8.9374264908833358e-03 4.7882867682380655e-02 4.7908350253504185e-02  5.9794826366513606e-02 2.7494937342665070e-03 -5.7668293797956058e-02  4.7988235854031711e-02 4.7881953798096552e-02 -6.6182031875328479e-02  5.3224325955209061e-02 -9.7794353585595462e-03 -7.1991515155999733e-02  1.2880137814009696e-01 1.2406868318066032e-01 -1.3358841960834238e-02  9.9811089327043648e-02 -7.2395198679197567e-02 1.2466838928332527e-01  1.1357465773326770e-02 -1.3247430049677739e-02 1.2078912714657766e-01  1.9287511741946001e-02 1.2300123031290008e-02 1.9135455305968047e-01  3.4404277496824006e-03 1.6737123225542047e-01 1.1765756794252057e-02  1.1823977979610161e-02 1.2553811028203918e-01 8.1507931701799430e-03  9.3538998590058636e-03 1.8083785958913151e-01 -5.2744151175534494e-04  1.3933766100327392e-02 1.7725193867462868e-01 -5.6893657060249479e-02  3.7466756355631063e-02 -1.8590971573531895e-01 4.4168978853945426e-02  5.5666412198510533e-02 -1.8152835981669074e-01 -1.1683198717723255e-02  7.0424139619107387e-02 -1.6880945223558835e-01 3.7512323122846136e-02  1.5765970746898752e-02 1.1839062387500968e-01 8.1961179800805806e-02  2.4960272254253464e-02 8.2646952697293150e-02 -1.5374193966804421e-02  3.1136697594192159e-02 8.9616865928486528e-02 -2.0437710597727434e-03  4.3044416393685600e-02 1.5875343292929797e-01 9.3709078176959865e-02  1.7427887785518476e-02 -6.7310906808488877e-02 -2.3889953055483092e-02  9.9113001106145519e-03 -6.5096174063198869e-02 -1.3617224471789641e-02  1.7347037594791677e-02 -6.7494122748699301e-02 -8.7715416131277559e-03  1.2797339419201257e-02 -1.0360209414382685e-01 -6.1132654564161559e-02  3.2900447893520895e-02 1.6807400727974355e-02 -4.2390663919768055e-02  4.4023873867773823e-02 4.5511529108039706e-03 -8.0804146795592960e-02  3.9408864275695878e-02 2.2461740491266816e-02 -6.8122303345326818e-02  2.6244482791122858e-02 -4.1920397674451694e-02 -1.4294314507902960e-02  3.6674162924549066e-02 -6.6007923444719716e-02 1.3393010767746641e-03  0.0000000000000000e+00 1.7444259961656914e-02 6.3232973439774492e-02  1.1184605175546270e-02 1.9882419709780066e-02 7.5559403740173087e-02  8.0318885907936597e-03 2.8338378119964588e-02 6.0952102583289557e-02  1.4509152398218551e-02 -7.2059436849691141e-02 -9.3498953793504966e-02  1.9727070325699776e-02 7.7554167117591125e-02 1.7209573954669530e-01  3.6713142539625140e-02 3.3039123400161963e-02 1.8186085037578484e-01  7.1700580437649413e-03 -1.8193497335860337e-01 5.8388796395091654e-02  2.2689375003159980e-02 -1.9521553562727911e-01 9.8093936045127346e-03  6.8653642658689281e-03 -1.8236793273820068e-01 1.1242209537900488e-02  6.4501240851662306e-03 7.7103617361338944e-02 -4.5644384629992811e-02  1.6066123793965863e-02 5.6423576209707171e-02 -1.1237624609140667e-01  1.7378700680427132e-02 -3.7390467739987020e-02 -2.5270399118246495e-02  2.9410136214966711e-02 1.1107001684879875e-02 -1.0040041577965272e-01  4.0121589603302026e-02 6.9539702658345692e-02 -1.7971211896749509e-01  3.6003840794564812e-02 5.8718486856081956e-02 -5.9051998645437524e-02  3.2657502938691858e-02 4.0849150577285540e-02 -1.2569772209980793e-02  1.8859031698789504e-02 -4.7888596122653254e-02 3.0234382435382408e-02  2.2914197781376169e-02 -5.3136752559331077e-02 1.9338612791576490e-02  1.7417106161886169e-02 -6.0135003590233591e-02 1.8748133570983830e-02  3.0825457693870743e-02 -6.5708959816488693e-02 5.0661699966668854e-02  1.6328943440769916e-02 7.0882695529328535e-02 5.3029863254119555e-02  9.4698449151540496e-03 -1.0114461379852021e-02 -1.0443726958948221e-01  9.3933067992538633e-03 -3.9853854117176381e-02 -6.1108932236674234e-02  9.6189211981558467e-03 -3.2451614591606344e-02 -6.4420430661910388e-02  1.1705512602801454e-02 -3.8021834469931792e-02 -5.2813458433007450e-02  2.9125919166287928e-02 4.4153156102476457e-02 2.1186147358771116e-02  2.4511132657355477e-02 4.2684117201983209e-02 5.7938749021414484e-03  1.4255602530383268e-02 1.1367904615983379e-01 -4.0794122432010131e-02  2.5090123399635875e-02 8.9077755727798982e-02 1.2133917171554829e-02  6.9621231307768081e-02 1.5597600076523518e-01 7.7339211066405872e-02  1.6693940970052740e-02 -1.8049217680852772e-01 -6.4682168422796157e-02  3.2445075709090727e-02 1.8580996854465245e-01 -2.0236870962418194e-02  2.6896030116496224e-02 -2.3107352880897276e-02 3.7883787505127435e-02  0.0000000000000000e+00 -1.4529617157758910e-02 -1.8355656214128829e-01  0.0000000000000000e+00 3.3081165120631278e-02 -1.4920005850387597e-01  3.8748635174091347e-03 1.7851931523601233e-02 -1.2108121272873262e-01  8.0087404205540849e-03 -3.2905121059337218e-02 -1.8441795128968511e-01  7.2929710700095993e-03 -8.5403263338190788e-02 -9.3247715089285754e-02  0.0000000000000000e+00 1.4958165794003653e-01 -1.0781793401812326e-01  0.0000000000000000e+00 -7.3369814529602798e-02 -2.3350920641520487e-02  1.2140167779873269e-02 -7.3656513344960831e-02 -2.8599173341552969e-02  7.8817484528190176e-03 -6.2104890119875376e-02 -1.7587982098289670e-02  1.7340814545214956e-02 1.0709133211463141e-01 3.4216847338630257e-02  8.0023044348158448e-03 1.4932757118311030e-01 4.3071137060693883e-02  6.4684132644923795e-03 5.0971958276706010e-02 -1.6686938366686187e-02  5.6221543951367366e-03 8.7997526710814108e-02 1.6091696567787303e-01  4.8844062403356411e-03 3.8518537098052294e-02 1.6563055955423281e-01  2.1090797751239211e-02 8.3974045282183812e-03 -6.9291009389029865e-02  2.4818763904785240e-02 4.9991610395304538e-04 -5.4697070967125595e-02  2.9860743129555126e-02 4.4871975972728968e-02 -8.5661438528008754e-02  1.6627480216198389e-02 -1.0198856115117186e-02 -5.9097802869213428e-02  0.0000000000000000e+00 1.1776878029782376e-01 -9.6292136784277060e-02  6.1910637462825307e-03 5.5011440901650749e-02 1.0557575218879181e-01  1.5657242930127671e-02 -6.3799629972519201e-02 4.2599531098663587e-02  1.9619263532607227e-02 -5.2369412575477441e-02 4.6921230504302011e-02  2.4081665526962906e-02 -6.9859501750994493e-02 3.7919859964315406e-02  2.1133144026567675e-02 -5.8233455014614133e-02 -1.9764345658686146e-02  1.7787374139177994e-02 -6.2850130987512950e-02 2.0491995991697019e-03  2.8930840397898640e-02 -7.6725434094130060e-02 -9.6867365500285345e-03  2.2675438914563729e-02 -1.2981771240913572e-03 9.3356040588192371e-02  2.8193579854060229e-02 -1.0296147187334465e-01 1.6029910249692231e-01  2.1995375504821776e-02 -4.6964964610536140e-02 9.9531419365927395e-02  1.6106612209397873e-02 -7.5820324262881378e-02 7.3810234257007445e-02  4.3486241230546036e-02 -1.1238653503689443e-01 1.4897085508678745e-01  1.5194148212871187e-02 -2.4529819990776892e-02 6.5098640393789223e-02  1.0443030228998468e-02 -7.4119904826819613e-02 7.7135261819211961e-03  1.1581321055660196e-02 -6.9990949705886304e-02 2.1057610165211717e-02  2.9468997642031997e-02 8.1380122100358471e-02 -1.2278892690404669e-02  2.5232659850296234e-02 -2.0264186884777553e-02 8.2709839532954563e-02  4.8390858986266702e-02 -2.9513194542382850e-02 2.9056221751520485e-02  4.2600543309543666e-02 -9.5393329369437025e-03 -1.0487883914364829e-02  1.0022687287971158e-01 -1.5346054810551773e-02 -1.4246639748355006e-01  2.2052314463769256e-02 2.6006305824952239e-02 4.0297216755387021e-02  2.1044638477812617e-02 1.0952887165616569e-02 4.7103264916365344e-02  2.0659136041619713e-02 1.3101221744496624e-01 -5.3458393452026545e-03  5.7995534786896660e-02 -5.9127577803520494e-02 -4.0610034829549300e-02  2.9611453533810339e-02 -1.5095890418786199e-03 -3.7657429526715712e-02  2.5849324490920197e-02 1.0205108327861231e-03 -3.3570598328185576e-02  4.8024637070391278e-02 -1.9722527892860078e-02 -6.1387409467166962e-02  3.6123208667886791e-02 -4.0965727961941832e-02 7.7404997842066461e-02  1.7988688998047495e-02 -3.2024787508216711e-02 -1.5260099906540226e-02  3.0175639709777463e-02 -3.3382030435168158e-02 -3.8615739078851487e-03  1.9494188774838321e-02 -2.4117753566353064e-02 -1.1333045208740563e-02  2.5159943295795226e-02 3.6064241391696936e-02 -3.1014132205840471e-05  4.2020285449506034e-02 6.6834339805597526e-02 -2.6163138521492473e-02  3.4408349947038439e-02 3.6139104721710932e-02 -9.6146442032808417e-04  4.9825288566950288e-02 5.7557213712454487e-02 4.1565027678021012e-02  0.0000000000000000e+00 1.4588042551448968e-01 -4.5537761627734694e-02  0.0000000000000000e+00 2.8148449461974302e-02 -6.5675965967466152e-02  0.0000000000000000e+00 3.9367675724101790e-02 -6.9937983101621540e-02  2.7648449004127908e-02 -4.0793789200464468e-02 1.8657704375454798e-01  3.9933104975654853e-02 -5.2221999243426361e-02 1.7859212078536174e-01  8.6732746196170017e-03 6.7482061772119628e-02 -1.5740320887328036e-02  0.0000000000000000e+00 5.3362751058529369e-02 -7.8097281038883564e-03  8.8489081126063070e-03 6.8273363553056576e-02 -4.5778611801737716e-03  1.3060269811519845e-02 -6.8358309703221806e-02 1.0568152603569189e-01  1.4990645330416795e-02 -5.0580420521675286e-03 6.8049190023040190e-02  9.6943372951434223e-02 9.2034724291854469e-02 -1.0166142205394472e-01  4.6899726731247850e-02 -6.0873143660248187e-02 -4.2397275095280129e-02  1.1923728830063782e-01 8.9360352064744644e-02 -8.9634581846508590e-02  2.3400655874402581e-02 4.9811066971501852e-02 -2.5754500069393269e-02  1.8739256755116757e-02 6.4370641003663381e-02 -8.8556051836478026e-03  2.4061882679182873e-02 5.2854038235357122e-02 -4.0301770369904406e-02  0.0000000000000000e+00 -1.5148930879751404e-01 4.5227506247778736e-02  9.3720046579552317e-03 6.8621634164619569e-02 -1.0414324732853983e-01  2.0168558120983379e-02 5.0996027765866925e-02 2.6592607263334230e-02  1.8598535103870953e-02 5.6004488348867003e-02 1.8113782519180721e-02  1.9386574488115114e-02 4.9499049255950042e-02 -5.6243081858154600e-03  3.6174282605724195e-02 6.9974020282427954e-02 -5.0685276685898201e-02  2.6760690282192690e-02 -1.5531199474206617e-02 -3.6977171535914462e-02  3.1530512895062389e-02 -1.2485897591237702e-02 -3.8101415463140623e-02  4.6264141454841791e-02 -6.0157249652543439e-02 -4.5924014607155617e-02  3.5029031054724526e-02 -8.4365159323305058e-02 1.5952688978643305e-02  9.8912265960369006e-02 -9.4855402830697627e-02 -1.0512756625580674e-01  7.8695261028446858e-02 -1.2683569135968903e-01 -1.0598335613393606e-01  2.9870176319615860e-02 5.4570579216473340e-02 -7.6879769358677739e-03  2.5425083526595886e-02 5.3693131811992166e-02 -1.7704855153327408e-02  3.0946380930338929e-03 -4.3890661587553254e-02 1.5799258284114506e-01  1.3330032170318086e-02 7.8237085963317285e-02 8.2756004047611229e-02  2.8905506985246802e-02 1.3976191827014456e-01 1.2665412572956247e-