<?xml version="1.0"?>
<VTKFile type="UnstructuredGrid"  version="0.1"  >
<UnstructuredGrid>
<Piece  NumberOfPoints="562" NumberOfCells="2167">
<Points>
<DataArray  type="Float64"  NumberOfComponents="3"  format="ascii">1.368988780486386 -0.3330614804626422 0.3812091262482924  1.457971735921389 -0.1022985678317614 0.3848351862271924  1.610427907917255 -0.2543337204802068 0.5283220094529932  1.517018421924314 -0.2975870322441377 0.2373535790744415  0.2896649584838891 -0.6565336317944969 0.3023309575633568  0.1476062501325057 -0.7596307241376263 0.3283146094026839  0.2103887490757956 -0.916837934661527 0.3815037813901131  0.2689768990101102 -0.8331508488021908 0.5326326663736717  0.9156822098122387 0.1728678968738864 0.3547279359267569  0.9955038627747099 0.1533306194452782 0.6087026577562188  0.7890673547573852 0.1092600253823605 0.4080960165386402  0.9145731457487908 0.02582743292350364 0.3935106194697764  1.555529446910997 -0.5403673213763167 0.3112575692626874  1.348103006996482 -0.462351674863219 0.1749673809371412  1.400987129938871 -0.69735066861689 0.1355899121124687  1.379596868832529 -0.6110590497219095 0.3769781373204191  0 -0.4990262892337586 -0.03118914320056031  0 -0.7290746446371459 0.09885523113658878  0 -0.717672921293292 -0.1906601281732726  0.1968984162950436 -0.7040029471989069 -0.07369861360184334  0 -0.04626762634821223 0.7372759069896635  0.1747349115361219 -0.1710428392996126 0.8075209349320995  0.1736439618246974 -0.1962945897661325 0.6287261280994423  0.1554956487469918 0.01915161770726388 0.8205218561784148  1.468118261285947 0.4388895086210086 0.1612631929613552  1.314649208445651 0.4683262063503433 0.04261620133015324  1.344984587319364 0.2109573947886681 -0.02958325590058262  1.313873754896346 0.1816089619152257 0.1471166805105471  0.8054134969450556 -0.533449770498696 -0.3926139635083312  1.023959850515393 -0.6045695018332022 -0.2205179401063885  1.05215698719499 -0.4565551953633328 -0.3958586963103667  0.8906623628738856 -0.3599786025326254 -0.1746980748537972  1.697689701537584 -0.1214082871572868 0.1246812640999428  1.488464593112258 -0.01630978270888243 0.02506236650239546  1.430421324362075 -0.1422530463333789 0.0006438225420573964  1.443375672974065 -0.09622504486493764 0.09622504486493764  0.7321510998862281 0.5624492232270197 0.3646846381716035  0.9239002426432321 0.3480246702761787 0.1811782883685  0.7490852309803118 0.4095827285081708 0.1339143819021366  0.9285858048943815 0.6335571890886311 0.2734941480292951  0.5604589232358378 -0.5698201261526246 -0.445758982164192  0.6089524280343109 -0.7218043571025563 -0.2041610728153083  0.6992001125134369 -0.7541456942161303 -0.5502812588103354  0.6274724868209266 0.4419785778654846 -0.5250198354585243  0.8756473641379455 0.3468289673768704 -0.5629197215258924  0.67802877664681 0.1808686458692327 -0.4046923641025996  0.5747192133026287 0.2418214339106003 -0.6661394725993455  0 -0.05589422902377143 -0.4966102514551253  0.2056253598613783 -0.1053038618535594 -0.6787933827793691  0.1556038154442484 0.06282062757538044 -0.6543309982444776  0.2724660772724383 0.01271359915602951 -0.4910330623919412  0.9865780311818615 0.5347283976096202 -0.3161606543928742  0.8204442367782485 0.5439521650280197 -0.46835255331516  0.8298883357700151 0.2747691377838339 -0.3083728461704535  0.6862435664967209 0.3812464258315117 -0.228747855498907  1.177314513331318 0.2155896063490769 0.2140622858922932  1.267656842582551 0.5005914574877968 0.2726043363799996  0.5728594645233351 0.3135209056411565 0.5449126792957779  0.5106867385450642 0.5036153923917321 0.4965240972019211  0.7698782860739618 0.3545773464498151 0.5878168661371025  1.257062485956698 -0.4638359972454 -0.342956295722521  1.188194666541641 -0.2467563208328611 -0.4932880249876783  1.208812547869822 -0.2451038235802088 -0.1523648506518715  1.405543018003129 -0.3155823461555193 -0.3144549970062264  0 -0.1321637113190494 -0.9912279018522304  0 -0.3021402933326705 -0.9528694918273042  0.2240193167333228 -0.2163747517189394 -0.968604487305365  0.1588608620926228 -0.2417277328284706 -0.7863213987186402  0.234290723282165 -0.4158101367292431 0.6068160964348613  0.336171426774712 -0.1961275532959101 0.7074104293225126  0.2157572393158068 -0.1977293037481581 0.4531390059122784  0.3402759051114709 0.1630546516396377 -0.7060477597699854  0.1632882031789302 0.196780254177258 -0.7862562160633888  0.231029003331308 0.1880338449615072 -0.4559977997563014  0.4728863797400071 -0.4933154510626057 0.5304985100819815  0.187854599331762 -0.6281900592232541 0.4987253373128265  0.1504625078742185 -0.4631455710889698 0.4631699097377626  0.5053019851007623 -0.4639188236666469 -0.07333804255252858  0.5526823878021767 -0.6967835074188571 0.215903246388164  0.6541336653852354 -0.7283429953560903 0.01682686734495902  0.6106765895285129 -0.435572044232048 0.1342135044502026  1.287900750276439 -0.4687881345125656 0.5967914885117886  1.473254424964647 -0.2014289120459823 0.6388974134251688  1.252201609832917 -0.1994817872140489 0.4924873900544187  0.6933873765617349 -0.4558378836670255 -0.5791550267835122  0.4866071064794875 -0.3834461891956515 -0.6005511129213282  0.6019697230687768 -0.6242818145703938 -0.7168889634012832  1.902820210771035 -0.06211515387208391 -0.2891430129447606  1.990339083299429 0.001064238785733084 -0.07652382797423923  1.724478368935762 -0.003788849933621816 -0.09935623650575776  1.954875178599839 -0.1249628659413422 -0.1581861500923273  0.9809979007020542 0.3576737082789349 0.535667969994543  1.241639713161487 0.2329691467692865 0.4709274800730408  1.03542332926206 0.2261833785676189 0.277619257236822  0.844968024044826 0.2915591042812161 0.85479271387891  0.9643254804467414 0.1075471943400586 0.8675308624173648  0.7528609021968682 0.08903098632416863 0.6868333670574929  0 -0.2092988896484911 -0.7083966808149078  1.404920008928814 0.3372989555460403 0.316767914436192  1.004219460199691 -0.2737979137568052 -0.4388250598374921  1.180873089276474 -0.4621305164745083 -0.6560168552866585  1.053305258761655 -0.3284868324358208 -0.7801286865200052  0.9712979390145692 -0.5110446369696806 0.4327235545709323  1.146293004560022 -0.6668284527145589 0.469882080380535  0.8963334118470608 -0.7310840957918627 0.5111265403121084  1.08206659020357 -0.7596894074461439 0.3528958016823166  0.8015085840467554 -0.3389768733860401 0.6685991538206634  0.925104953366791 -0.4648901631989753 0.7519021955945258  0.9984935472219151 -0.3065996581170283 0.5499211474208088  1.002288197777214 -0.2792071613298824 0.8153893475416765  1.215846416214816 -0.2524645935340363 0.7497327115816464  0.3024217308764339 0.4448958319181652 -0.8808605755070491  0.390139049844082 0.2930948946191007 -0.9351790364388617  0.7478274009820868 -0.4286314222864522 0.5038265581755443  0.2148561413125 0.491329266113953 -0.05528733303340339  0.2309383938052318 0.714092978138881 -0.2036113182046372  0.1975535218752708 0.6794042289099913 0.05518288617085648  0.3761572698058325 0.4709053903224183 -0.110071861452686  0 0.5090940372412278 -0.5349460340386839  0 0.5350603504932784 -0.8430433168771743  0 0.6738578937333988 -0.737915259701458  0.164109593248377 0.5761575785324918 -0.5890928788615022  0.2475029747273103 -0.4561046932550408 0.8800394901604827  0.3694925429576245 -0.5958501646405832 0.7791131291684588  0.4406799393760092 -0.3650559370457628 0.6810505410128649  0 0.4382264083498228 0.5937380410910144  0 0.7379152597014565 0.6738578937334002  0.1559289910125653 0.445628518864029 0.6984925326213108  0.2324810536730123 0.5213808955010337 0.5258435644279391  0.3555983309770547 0.656027019032849 0.3461651671211329  0.2458237569105728 0.8801511092168622 0.4561636277282752  0.1607954010233367 0.6785216544507058 0.4667873694261923  0.3826204414382912 0.7779301383454942 0.5949541429760784  1.52119605566691 0.1993844535737337 -0.3296462252473032  1.414311204796628 0.3898129177969151 -0.2057175795712648  1.35043553368913 0.31412477587753 -0.3988690910712985  1.281185985486842 0.1662780899176228 -0.1943758563769023  1.099075518775129 0.05947806630170303 0.3306302206363526  0.3679939443262019 0.3447617450768622 0.6523888179221276  0.4109508094888962 0.2773549013757027 0.3912230928899285  0.1373126243972625 0.5009352089527304 -0.4461785342859961  0.2664596187693265 0.6010832976391717 -0.4365657049749609  0.2179946197840175 0.4409807484602174 -0.2220003033063632  0.2617145123926756 0.3390154592910617 -0.3562749789872797  0.5824068775984312 -0.3170408450840759 0.3306350426033773  0.7199893230774794 -0.3705530655917506 0.2326552719422485  0.8358295522502738 -0.2669244509736641 0.3143056243869983  0.5587150980897445 0.6294294572528504 -0.01623015267248071  0.753690685110203 0.6532057608559532 -0.2369277096202369  0.7001301874755437 0.7550693058622343 -0.0524082716182921  0.6800782824703502 0.4417054734682031 -0.04452076045795449  0.4884308328800496 -0.9272425338669441 -0.2789182923255702  0.3906764030666174 -0.9712790424584049 -0.1262145572896986  0.6009334315497298 -0.9480231963115218 -0.09890104373476166  0.420071318585673 -0.7193185330298141 -0.02275610742170561  1.385707654592962 0.3976065221960926 -0.5961074699430042  1.219420193990472 0.4625196146528674 -0.3667717582939762  1.149364473949646 0.3130412125134983 -0.4806343490178561  1.195708172099174 -0.7474690340482983 -0.2799311705246049  1.219932523946796 -0.5119522484128803 -0.1401161375153302  0 0.4628593543202276 0.8855632312882982  0.3015827308425723 0.3699196515636318 0.916118113296736  0.2831250486531117 0.5320147666868361 0.8321945108773773  0.3825795555914422 -0.6690296309761865 -0.2952055242879837  0.4043090205097222 0.4000926521875504 0.2655017005394236  0.5978414449389082 0.3237928842626442 0.3209363851519929  0.2645148779899891 -0.338943586656435 0.3561994752880429  0.4219521826235639 -0.4004970037301178 0.2625370852546315  0.2094134450411068 -0.427547835839946 0.2479337980438358  0.1857857161792982 0.4082826524643675 -0.7114865320202091  0.4350093809141001 -0.08779074384838936 -0.7057378089671015  0.621
[...]
<PointData  Vectors="state-0"> 
<DataArray  type="Float64"  Name="state-0"  NumberOfComponents="3" format="ascii">1.7676831222355943e-01 4.3397062470293471e-02 2.8912386974436429e-02  1.3074351357149139e-01 1.8916617127326566e-02 3.9887935180371245e-02  5.8265566279626178e-03 -2.1161692994749706e-01 -2.9084468060783068e-02  1.5072045260335723e-01 2.7438240990710416e-02 4.1184404844507964e-02  3.3941729090400774e-02 -1.2019519557714950e-01 1.2391726263139289e-02  1.7257325544977515e-02 -5.5289668440957306e-02 1.2473531132620644e-01  -2.3135255681846776e-03 -1.1141617628024812e-02 1.4537018970351454e-01  -2.3973720183376973e-03 5.6492058000326764e-03 1.2821614969097206e-01  8.7486890753110988e-02 -8.3273708297767896e-03 1.5784695423166600e-01  1.2519938689728016e-01 5.3009502413154469e-02 3.8980858078741215e-02  7.2359752279545594e-02 -4.2228746127122060e-02 1.6954477055694356e-01  8.8204557108392728e-02 -7.2344654325144600e-02 1.4527963677266650e-01  6.6082455581650138e-03 -1.3485863292397007e-01 -1.2058092964048407e-01  1.5653250225828352e-01 1.5399826711592157e-02 5.6984365325391549e-02  8.8267001306533421e-03 -8.9748081408097188e-02 -1.5211324463394302e-01  2.1552352210758800e-02 -1.1999862705742048e-01 -8.9775193703318212e-02  0.0000000000000000e+00 -1.7498622948905765e-01 -7.9378764404572658e-02  0.0000000000000000e+00 -1.2893765100925716e-01 -4.5860245788126509e-02  0.0000000000000000e+00 -9.7439999840956693e-02 -8.0938538342053085e-02  1.8110545869107035e-02 -1.1999899854701458e-01 -7.4330719148609725e-02  0.0000000000000000e+00 -7.4363094763445881e-02 9.6240240168119898e-02  1.6136914552282285e-02 5.2588043742702512e-02 9.8726711579352228e-02  1.2455970788047128e-02 -1.3727140297162460e-01 8.6584273699175304e-02  2.0461073995604834e-02 7.5039393003694776e-02 8.9404928546135770e-02  1.8154055819232115e-01 -4.9216958255609775e-02 8.6587182747110986e-03  1.1689586092494557e-01 2.9756429970957551e-02 -2.5269735190815042e-02  1.6430081966406646e-01 6.8529373167969962e-02 3.4222499384086745e-02  1.4955778353474081e-01 3.0275038513078105e-02 8.3359277228752610e-02  1.0326185518991682e-01 -7.5878201205730134e-02 -2.7328503640995976e-02  1.4945966965795462e-01 -4.4930607847822580e-02 3.2308388421753639e-02  1.4419260490367050e-01 -5.3490001215510105e-02 -2.2188350729798099e-03  9.1406171974961217e-02 -9.5677253291226824e-02 -1.3267829552527649e-01  1.1577019853740583e-01 2.0513543365899407e-02 4.0073003810172036e-02  1.4059352381411691e-01 -1.9058894215264612e-02 4.5106306833565889e-02  1.8976982567749362e-01 -5.7772088259029138e-02 -2.5248966564406609e-02  1.6432750532883844e-01 -4.9421958504354727e-02 8.2421473199774543e-03  8.7277775656017728e-02 7.0366149217640270e-02 4.4649218026859998e-02  9.4926299856233562e-02 9.1413149886817743e-02 1.3652537018934888e-01  6.5109689735831547e-02 1.1460902252205254e-01 1.2982735389565705e-01  1.4593867313447267e-01 4.6341453273510455e-02 -2.5041510339801096e-02  7.6367711757997656e-02 -9.6603463529438688e-02 -3.2183325377305005e-02  9.2695607810290473e-02 -8.8593396129258997e-02 3.7560876195436833e-02  2.1440218595655140e-02 -5.6286865824941842e-02 -1.4746918497636341e-02  8.1282286869954756e-02 5.9732040135719790e-02 -6.9913329251780773e-02  1.3050537790199518e-01 1.9447147005854249e-02 -5.3301445121193308e-02  6.3165493765118569e-02 1.4087412124295082e-01 -1.1490066848694969e-01  8.4510147680643369e-02 2.4111537615318226e-02 -8.9535352547665134e-02  0.0000000000000000e+00 4.1701668717787799e-02 -1.7790806689347316e-01  1.8107513709066013e-02 5.8253619679813330e-02 -1.2967944689311400e-01  1.4800441834905202e-02 1.0630684757616188e-01 -1.1903089461515150e-01  2.3695273833191161e-02 8.1019505886600340e-02 -1.7367056420318350e-01  1.2825711466113743e-01 3.8426299261725631e-02 -3.7508823870985634e-02  1.4200169848147684e-01 1.5872813555444815e-02 -5.9707456280675704e-02  7.8152841388154481e-02 1.6269687769100558e-01 -5.8749418645895314e-02  6.0149859777060603e-02 1.7763516905147336e-01 -6.2465345737840556e-03  1.2869607679371090e-01 2.6413980415924805e-02 1.1800363821186333e-01  1.7982273702544743e-01 -5.8824093881961800e-03 -2.3305874719605220e-02  5.2392246124873247e-02 1.8420262602064617e-02 1.2765377955422133e-01  6.1140433571929276e-02 6.4878156404751613e-02 7.3697517366502333e-02  1.1005979952722987e-01 6.5213240063976233e-02 4.2683511244475038e-02  2.0084916147196402e-01 4.1988396908688242e-03 3.3357337723230150e-02  1.5488016715944727e-01 -3.1632741969884602e-02 -8.4162363857535269e-03  1.3438314211825469e-01 -5.8305358939273626e-02 -9.9322112099858056e-02  1.7244094432364582e-01 -3.9048424145337172e-03 1.8629758195879201e-02  0.0000000000000000e+00 -1.9777452237770507e-01 -7.3927950260182845e-03  0.0000000000000000e+00 -2.0244387231967276e-01 2.0090261223298995e-02  2.6907356909741651e-03 -1.4885764729921896e-01 -1.0666785129846524e-02  2.3986302635440302e-02 -9.6338106866334608e-02 -7.1374240460476274e-02  2.7559586528970871e-02 -9.2675168998749793e-02 7.0669606516408912e-02  4.0816583108256456e-02 -4.9998484464229123e-02 9.1958528519209118e-02  8.7839585260383567e-03 -1.4187853911052814e-01 1.2429292375975226e-01  4.9723141930933974e-02 3.9408470090209577e-02 -1.0051371090835852e-01  2.3853371140522363e-02 -4.4748620773248149e-02 -1.1229332731799843e-01  1.9486417353757425e-02 1.3685060797051932e-01 -1.4211339092992933e-01  5.8913490270501356e-02 -6.9155558686102667e-02 7.6992040036938103e-02  2.4076553529629677e-02 -4.7074948133586758e-02 1.0777953411018239e-01  1.2103231584904147e-02 -1.6586108550041556e-01 1.6951782527059818e-02  4.0777281728317523e-02 -1.6462424639601567e-01 -1.2276500971334318e-01  7.5389535244763661e-02 -7.9372673734902713e-02 5.1735471485708236e-02  9.3643325293188445e-02 -7.4763457935690197e-02 4.7814179321098660e-02  5.1830982606745415e-02 -1.9202660678122460e-01 -3.9196091959770286e-02  3.4744431083219541e-03 -1.3318334297386583e-01 -2.3910325059728666e-02  -4.0243770871070152e-03 -1.8210342374106370e-01 1.2110953330429507e-02  1.4618162579370725e-01 4.3464219807956811e-02 3.9207090152470668e-02  1.0511624891975906e-01 -8.3924301523794376e-02 -1.7775090562906718e-02  5.1086782948327962e-02 -6.3126344713804822e-02 -8.9609391424197368e-02  1.4161273448100109e-02 -6.8674829732348744e-02 -2.2767217781003820e-02  8.0240922011191908e-03 2.0546914504825831e-01 -9.8537260025525819e-02  1.0976295192797378e-01 1.8995903136819034e-01 -2.7538416729787075e-05  1.3961000952226296e-01 1.3875994186656726e-02 5.0357790732947466e-02  6.2884388507715772e-02 1.4969610631334898e-01 -9.9088351131995392e-02  1.3320074103660096e-01 5.9329677031542606e-02 1.4547788826846531e-02  1.3526775312504807e-01 4.5303449275079538e-02 6.7865253512230808e-03  1.1148723670830163e-01 1.8344324935902538e-02 1.4064223933456846e-01  1.0077165289802067e-02 -1.3526102684285023e-02 5.8615681162756852e-02  6.1171895456376820e-03 -5.4338315757840025e-02 6.4026296533878244e-02  1.0401699845012230e-01 4.1362793306847313e-02 6.7444635777364342e-02  0.0000000000000000e+00 2.4600142557664115e-02 -1.2593137795994558e-01  1.5595136250085523e-01 -1.7221399391351543e-03 -4.9838688939216561e-03  9.3984793403665889e-02 -3.4230438546738878e-02 -8.9979439982525736e-02  3.3816520733484220e-02 5.7486560985337533e-02 -7.8704116375417507e-02  9.5327756989719518e-03 5.1397947337563275e-02 -7.1698349111628631e-02  1.4387821607961909e-01 1.1821792666865845e-02 6.9749715112490521e-02  2.1240607472349616e-02 -1.0557356177576979e-01 -3.6121663482969364e-02  1.4963883000540057e-02 -6.9366550471504196e-02 3.7301335439670403e-03  3.1484547603110771e-02 -7.3701121571230141e-02 -4.6744116269302707e-02  1.2789382539945351e-01 8.3069235634941428e-03 6.8211718695642728e-02  5.3024756668537780e-03 -7.9682071263849727e-02 2.5370773349010549e-02  1.2334278770666758e-01 1.3639269538108185e-02 7.0900283303281478e-02  -1.3040600794633395e-03 -9.2473413651800535e-02 3.8418207104416298e-02  -1.2140261388714661e-02 -1.3607019938035059e-01 2.7839423831806188e-02  -1.1281318130968141e-02 -7.4929606428353446e-02 -9.8790786633426164e-02  -7.6981682896515649e-03 -6.5040579929985215e-02 -7.8049550750119406e-02  9.1151230241988679e-02 -5.0539920410152990e-02 7.4083019864830374e-02  1.3124051251205138e-02 1.7380808330361783e-01 5.3875938212469263e-02  2.6612793391771677e-02 1.1226115620139562e-01 -3.6868241502176582e-03  1.7387007189622800e-02 1.0573462716627485e-01 9.3573633494567904e-02  2.9018572656003265e-02 1.8505099534524724e-01 4.1380535736815750e-02  0.0000000000000000e+00 1.1618366367400462e-01 -4.2730539058244227e-02  0.0000000000000000e+00 -1.5902634629624215e-01 -1.3543976768530844e-01  0.0000000000000000e+00 -1.2957939775319430e-01 -1.6817907635900273e-01  2.1725913231177639e-02 9.8118063605359424e-03 -1.1212435845811632e-01  -4.5818086052569181e-03 7.5581766384867272e-02 1.0921374081967324e-01  -2.8653451512247975e-03 3.2813296502372309e-02 1.0221085380570824e-01  6.3598661282715255e-02 -1.5678439551503828e-02 1.0070310513934858e-01  0.0000000000000000e+00 -1.4786792750797382e-03 1.2809016823031161e-01  0.0000000000000000e+00 1.5719430474063850e-01 -1.1811106410656895e-01  2.0027440228782452e-02 1.0772292356573986e-01 3.7847032463701497e-02  2.7832544976893601e-02 5.0617238545358309e-02 9.5510588280163455e-02  4.1551412826109684e-02 7.9775822259536319e-02 5.6744151821368133e-02  -2.2308297162051930e-03 1.0952123196285074e-01 -8.3001486542395767e-02  1.5347217365187413e-02 1.1677420102604336e-01 -4.9871427767641191e-03  3.2856903177931329e-03 9.0068191475583523e-02 -4.1039823572751107e-02  1.8140230690771020e-01 3.1158207811951451e-02 5.1936780268052304e-02  1.4481958928895283e-01 2.7911961968850488e-03 1.3599814015456275e-02  1.8459657665520818e-01 -4.7415762590213234e-03 2.6245455226701259e-02  1.4788012327351466e-01 7.5044714618547850e-02 -3.9057365700719694e-02  1.2057674171609714e-01 -4.8777403641664670e-02 1.2924445909352930e-01  4.9340965042721154e-02 3.7504504544226991e-02 9.6853026049233806e-02  2.8808117459291856e-02 2.7036942883603230e-02 1.9161762825222731e-01  1.4629449789329086e-02 1.5518163257360784e-01 -7.3728730807144597e-03  3.5726538682413961e-02 9.3390386966848246e-02 -4.9400749889956720e-02  1.4023107759891110e-02 1.8263714847472343e-01 -1.3579491334698204e-02  2.1595316122806664e-02 1.7421320522067457e-01 -7.0058763497621829e-02  4.5402821346005824e-02 -1.8944192155087841e-01 6.3266231422147795e-02  6.4959501013249543e-02 -1.8662407629592459e-01 9.0393736567852528e-03  8.3379110651025753e-02 -1.6617715184003659e-01 6.1639978528937815e-02  4.9230581248858207e-02 1.1593794969385944e-01 4.6092470668159212e-02  1.0841873589276041e-01 5.5434911382712670e-02 -3.9269959998447290e-02  1.1474560748710363e-01 6.6459510659922214e-02 -3.5141411804282333e-02  5.6666454601828682e-02 1.6449314160441919e-01 7.2908424891158410e-02  4.9542639913018110e-03 -7.7818193444852621e-02 4.3874260336208872e-02  4.0928230521251153e-04 -6.3561534059542249e-02 7.2948508151676320e-02  6.0592138399891199e-03 -6.3348799475190107e-02 2.8049007523463652e-02  4.5922653717221984e-02 -1.1540647833226217e-01 -7.5708147066395320e-03  -2.6858721126934147e-04 1.4003432730884530e-01 1.9251496953346946e-02  1.7625233815753810e-01 -1.4798546768780872e-02 6.5538891732719480e-04  1.5058937581005891e-01 -1.7550825715633017e-03 -2.4182196865633804e-02  1.8052120736224819e-02 -1.0984822170338073e-02 -1.0788992632968884e-01  1.3303186069769338e-01 -3.5328933590193186e-02 3.2447298362302847e-02  0.0000000000000000e+00 1.8054239388527032e-01 -5.4976363280761914e-02  -3.6279390923855022e-03 1.1082422412659371e-01 1.9945249156780576e-02  -7.3653119893666887e-03 1.2081782327041236e-01 -1.0777827097897194e-02  4.8246156024917455e-02 -1.0429131812493193e-01 -4.4624928686095827e-02  2.5849832995160024e-02 9.0946659281539735e-02 1.6701885752427922e-01  4.8526051945692081e-02 4.7871380188306334e-02 1.7766890193534746e-01  1.0902252484854814e-02 -1.8487744987549812e-01 6.8820529413211984e-02  2.6691769100878015e-02 -2.0303961167282952e-01 2.2892153798002180e-02  9.4460893665859018e-03 -1.8921748759409127e-01 2.0334878168970238e-02  2.7126654895892686e-02 -2.4928168613859856e-02 -1.1225697925030102e-01  5.6151596164312804e-02 3.3651183374764672e-03 -1.1075862107767349e-01  9.7862447637254865e-02 -7.4285726648120290e-02 -5.1125361024964740e-03  1.1165040874162777e-01 -1.4651442132057230e-02 -7.9779706996159924e-02  5.0043126035255667e-02 4.9144671286504286e-02 -1.8528727699929470e-01  1.4680648675776264e-01 1.1163749303659275e-02 -2.3430895555371103e-02  -1.1727487655039269e-03 9.2396778309243699e-02 1.4793105664429054e-01  2.5439847884683651e-02 -6.4676906473704887e-02 -1.0019890285788795e-02  2.7172293372785712e-02 -6.4064536544907874e-02 -4.2107256921835617e-02  2.1001921692461532e-02 -6.3270016569615464e-02 5.0221770969143082e-03  1.3251138113079405e-01 -3.9524339922674241e-02 6.3457613537457574e-02  8.4259274181877522e-02 8.4120681611870404e-02 -1.7476816269826297e-03  2.2425357959241377e-02 -1.2641090392023657e-01 -2.5993575746434353e-02  -1.3634069849328540e-03 -1.3638410755256189e-01 3.9576806495472558e-02  -4.8050337549694136e-03 -1.2072968851303387e-01 9.0614923270770920e-03  3.6691812191668310e-03 -9.5954280102950623e-02 1.9097266225531064e-02  5.5002849974819081e-03 -2.6499386654197713e-02 1.2651572057208982e-01  -2.2790753471943145e-02 -1.6722276563207197e-02 1.7636772162071734e-01  4.9915736414174502e-02 6.9695900681504733e-02 -8.1260530753945778e-02  1.1045872109152693e-01 6.5709803869311495e-02 -1.5038341427572587e-02  9.2038921239256624e-02 1.5130703729000966e-01 4.5594469906768090e-02  2.1408419478687896e-02 -1.9343091066794896e-01 -5.3942861957729453e-02  4.4076271830696366e-02 1.8294107274476945e-01 -4.0350197834021495e-02  -1.0864202488269470e-02 -1.8707712382349898e-01 -6.2862222384339694e-02  0.0000000000000000e+00 -1.5885949278878105e-02 -1.8838531981086371e-01  0.0000000000000000e+00 -2.2518737270633381e-02 -1.2951740884993848e-01  2.4837767830948501e-02 -5.2109481946821905e-02 -9.7917227824964315e-02  1.3153257934055409e-02 -4.3252741340488544e-02 -1.9304249152815897e-01  2.1653264868072186e-02 -1.1971626375248658e-01 4.7515110021617589e-02  0.0000000000000000e+00 1.5198212957874185e-01 -1.0995090269672916e-01  0.0000000000000000e+00 -8.7152908855220090e-02 1.9446223568424550e-01  -4.0494882379622761e-03 -9.3029462467416002e-02 7.9615412157973284e-02  -9.7735880288381660e-03 -7.1467116885924789e-02 1.2500298082636038e-01  6.3291618478053160e-02 9.2881196360215482e-02 -2.2492032613680758e-02  3.2289564370937329e-02 1.4107332815752369e-01 1.4772374080657459e-02  8.0824359520581084e-03 -2.4039690179162476e-03 -9.3045859279228899e-02  9.5688262503344310e-03 9.5891390373447780e-02 1.5482633370911802e-01  1.1521645321342028e-02 4.6193828360966777e-02 1.5083078826553287e-01  1.2766303122731961e-02 -7.4954689163703810e-04 -6.0703833254300857e-02  1.1750856486771617e-02 4.6622264295428595e-02 -4.7270552875221902e-02  1.1097085151569798e-01 1.3995481702686198e-02 -7.9218502167678839e-02  1.3249100280813234e-02 1.3699911481274814e-02 -5.7290612165500562e-02  0.0000000000000000e+00 6.1051731596398713e-02 -1.0692110817836377e-01  2.0220343527728453e-02 9.5427498727425022e-02 1.8713357384237069e-02  9.6287823629594529e-04 -2.6349499711000493e-02 9.0383339728725587e-02  5.8657041817788630e-03 -4.2884787201994776e-02 5.0883345963666421e-02  8.9208607167877610e-02 -4.0407109619581175e-02 7.6988845756611940e-02  1.7708382733865793e-02 -5.4210606489429873e-02 -2.2610701630571783e-02  1.8991776095145563e-02 -5.5070974711195479e-02 3.8281456886576854e-03  1.1015161556906065e-01 -7.2192760470787182e-02 2.3265937022830613e-02  8.6092726340234307e-02 4.8655180502854528e-02 7.2146607446441052e-02  3.5612678059801936e-02 -9.1703896070239405e-02 1.7237907190054996e-01  7.5662791231676074e-02 2.4828411586706048e-03 9.6437432510426940e-02  6.9700133229168154e-02 -3.6691136786819900e-02 8.9034624835381368e-02  5.4323912236538298e-02 -9.8047727634367129e-02 1.6023494278614195e-01  3.1675726957043876e-04 2.1343934246308396e-02 6.3984248449092548e-02  -2.6008346876232554e-03 -3.4731315954107084e-02 1.2854161569891523e-01  5.0959846297069277e-03 -2.6134430809554920e-02 9.0315643494030318e-02  1.3842636892039406e-01 3.8619543093459795e-02 -1.8989009076748754e-02  1.0980216900897949e-01 1.1311797473602727e-02 7.2674027142885497e-02  1.2388725507299395e-01 -1.1235725134719311e-02 -1.4438234374507361e-01  9.3458070523474226e-02 -4.6091886343642037e-03 8.5316327726657828e-04  1.1547822703644181e-01 -4.8662754281594299e-02 -1.2790406504210902e-01  1.2732817180767101e-02 -6.3715883218190175e-02 7.9289686400022333e-02  -1.1576082347163753e-03 -9.7728112449952970e-02 7.1287313992502599e-02  6.8018715742710442e-02 1.0468741408768616e-01 -3.5184136410906286e-02  2.1030407690740138e-01 3.9966106647339454e-02 7.5294221275670523e-02  -1.3641764163957275e-03 1.4328070438042595e-01 -1.1024632793276633e-02  -9.3668767735199769e-03 1.5416683386909727e-01 -3.9928138399425252e-02  1.6577637260041139e-01 -1.6765286004018411e-02 4.7461751000807276e-03  2.0607362798142909e-01 5.4649198842236436e-02 3.4470264764967583e-02  -6.0225479169204010e-02 9.4992244883664659e-03 -2.1317123528658902e-01  -1.3669563732363093e-02 -2.5357543089825071e-02 -2.0444950345433280e-01  -8.1964252560767538e-03 4.0756621314843918e-03 -1.6975240548849357e-01  -3.3752689978025975e-02 -4.5432241043330844e-02 2.1027957084182075e-01  1.2804081704939554e-01 -7.8829962371723857e-03 6.7281564158082592e-03  -2.3765039157102874e-02 3.3003792347591938e-02 2.2509339366613740e-01  1.4739706800659078e-01 7.3032822315622237e-03 1.0480491426548789e-02  0.0000000000000000e+00 9.8042846687976748e-02 -7.5580563892979041e-02  0.0000000000000000e+00 -1.7623349120530285e-01 -7.9633195912411053e-02  0.0000000000000000e+00 -1.7218449530918442e-01 -1.1878515452827434e-01  3.7191706126505068e-02 -2.4116734878875747e-02 1.9206485229480372e-01  5.1080812200515913e-02 -3.3812443415835412e-02 1.8442999772460750e-01  8.5508996027305363e-03 -8.4380398660004498e-03 -1.4723664613665319e-01  0.0000000000000000e+00 -3.8638750726181614e-02 -2.0500051883118195e-01  3.9278132536830750e-03 2.5098872717309727e-02 -1.2087623390451339e-01  4.1189573100872227e-02 -1.2602239593608991e-02 1.0554502770693382e-01  7.5325706736368032e-03 5.3363752242632470e-02 5.1922738863552038e-02  1.1386026738216484e-01 5.4309788334757358e-02 -1.0788059428985805e-01  1.8541828287346129e-01 -7.1205168209686788e-03 1.7449093902829560e-02  1.3274422236315356e-01 4.6390925059659915e-02 -8.3658629220032601e-02  2.1605877435386125e-02 6.3734171274483442e-02 3.3520223081825562e-02  8.2667594472613636e-03 5.7332948432084224e-02 -1.8981120539716526e-02  2.5208187336457671e-02 4.4194540175446051e-02 -1.5742420953585575e-02  0.0000000000000000e+00 -1.1178730617477528e-01 6.7735085957226313e-02  2.4398112153788551e-02 -7.2208625840060756e-02 -9.4429614406041695e-02  2.1426076028558940e-03 1.0939462103905308e-02 9.7983425789688106e-02  6.1205106383353455e-03 4.1062851818358455e-02 6.6909618762108991e-02  1.0287466900928048e-02 4.4218804297630747e-02 8.6731561702060297e-02  1.5162359418093230e-01 2.7309299761779024e-02 -3.0861443221886328e-02  -1.3074546848507625e-02 1.1795694427289390e-01 -9.8860718338787748e-02  -2.8423021166154552e-02 1.8836919827723975e-01 -1.0160353443551777e-01  1.6400775310215474e-01 -1.0936240389986961e-02 2.7418503034005209e-02  1.1600723281604952e-01 -5.9457926138780592e-02 3.3003131984281196e-02  1.1396987575503427e-01 -1.1623319023700845e-01 -7.8640578802304184e-02  9.0413648179009320e-02 -1.4455957861954061e-01 -8.5288845930397664e-02  -5.1987163917194580e-03 5.8495021654632523e-02 1.3504181583273817e-01  1.2377267364116587e-02 7.0241601834625980e-02 9.7097576375172939e-02  1.3024077866213367e-02 -3.0856450553227433e-02 1.5156275134838465e-01  5.2375969502384080e-02 8.9015534317103448e-02 2.2077778823411057e-02  3.8720295290011829e-02 1.5243923620210964e-01 1.1