<?xml version="1.0"?>
<VTKFile type="UnstructuredGrid"  version="0.1"  >
<UnstructuredGrid>
<Piece  NumberOfPoints="562" NumberOfCells="2167">
<Points>
<DataArray  type="Float64"  NumberOfComponents="3"  format="ascii">1.368988780486386 -0.3330614804626422 0.3812091262482924  1.457971735921389 -0.1022985678317614 0.3848351862271924  1.610427907917255 -0.2543337204802068 0.5283220094529932  1.517018421924314 -0.2975870322441377 0.2373535790744415  0.2896649584838891 -0.6565336317944969 0.3023309575633568  0.1476062501325057 -0.7596307241376263 0.3283146094026839  0.2103887490757956 -0.916837934661527 0.3815037813901131  0.2689768990101102 -0.8331508488021908 0.5326326663736717  0.9156822098122387 0.1728678968738864 0.3547279359267569  0.9955038627747099 0.1533306194452782 0.6087026577562188  0.7890673547573852 0.1092600253823605 0.4080960165386402  0.9145731457487908 0.02582743292350364 0.3935106194697764  1.555529446910997 -0.5403673213763167 0.3112575692626874  1.348103006996482 -0.462351674863219 0.1749673809371412  1.400987129938871 -0.69735066861689 0.1355899121124687  1.379596868832529 -0.6110590497219095 0.3769781373204191  0 -0.4990262892337586 -0.03118914320056031  0 -0.7290746446371459 0.09885523113658878  0 -0.717672921293292 -0.1906601281732726  0.1968984162950436 -0.7040029471989069 -0.07369861360184334  0 -0.04626762634821223 0.7372759069896635  0.1747349115361219 -0.1710428392996126 0.8075209349320995  0.1736439618246974 -0.1962945897661325 0.6287261280994423  0.1554956487469918 0.01915161770726388 0.8205218561784148  1.468118261285947 0.4388895086210086 0.1612631929613552  1.314649208445651 0.4683262063503433 0.04261620133015324  1.344984587319364 0.2109573947886681 -0.02958325590058262  1.313873754896346 0.1816089619152257 0.1471166805105471  0.8054134969450556 -0.533449770498696 -0.3926139635083312  1.023959850515393 -0.6045695018332022 -0.2205179401063885  1.05215698719499 -0.4565551953633328 -0.3958586963103667  0.8906623628738856 -0.3599786025326254 -0.1746980748537972  1.697689701537584 -0.1214082871572868 0.1246812640999428  1.488464593112258 -0.01630978270888243 0.02506236650239546  1.430421324362075 -0.1422530463333789 0.0006438225420573964  1.443375672974065 -0.09622504486493764 0.09622504486493764  0.7321510998862281 0.5624492232270197 0.3646846381716035  0.9239002426432321 0.3480246702761787 0.1811782883685  0.7490852309803118 0.4095827285081708 0.1339143819021366  0.9285858048943815 0.6335571890886311 0.2734941480292951  0.5604589232358378 -0.5698201261526246 -0.445758982164192  0.6089524280343109 -0.7218043571025563 -0.2041610728153083  0.6992001125134369 -0.7541456942161303 -0.5502812588103354  0.6274724868209266 0.4419785778654846 -0.5250198354585243  0.8756473641379455 0.3468289673768704 -0.5629197215258924  0.67802877664681 0.1808686458692327 -0.4046923641025996  0.5747192133026287 0.2418214339106003 -0.6661394725993455  0 -0.05589422902377143 -0.4966102514551253  0.2056253598613783 -0.1053038618535594 -0.6787933827793691  0.1556038154442484 0.06282062757538044 -0.6543309982444776  0.2724660772724383 0.01271359915602951 -0.4910330623919412  0.9865780311818615 0.5347283976096202 -0.3161606543928742  0.8204442367782485 0.5439521650280197 -0.46835255331516  0.8298883357700151 0.2747691377838339 -0.3083728461704535  0.6862435664967209 0.3812464258315117 -0.228747855498907  1.177314513331318 0.2155896063490769 0.2140622858922932  1.267656842582551 0.5005914574877968 0.2726043363799996  0.5728594645233351 0.3135209056411565 0.5449126792957779  0.5106867385450642 0.5036153923917321 0.4965240972019211  0.7698782860739618 0.3545773464498151 0.5878168661371025  1.257062485956698 -0.4638359972454 -0.342956295722521  1.188194666541641 -0.2467563208328611 -0.4932880249876783  1.208812547869822 -0.2451038235802088 -0.1523648506518715  1.405543018003129 -0.3155823461555193 -0.3144549970062264  0 -0.1321637113190494 -0.9912279018522304  0 -0.3021402933326705 -0.9528694918273042  0.2240193167333228 -0.2163747517189394 -0.968604487305365  0.1588608620926228 -0.2417277328284706 -0.7863213987186402  0.234290723282165 -0.4158101367292431 0.6068160964348613  0.336171426774712 -0.1961275532959101 0.7074104293225126  0.2157572393158068 -0.1977293037481581 0.4531390059122784  0.3402759051114709 0.1630546516396377 -0.7060477597699854  0.1632882031789302 0.196780254177258 -0.7862562160633888  0.231029003331308 0.1880338449615072 -0.4559977997563014  0.4728863797400071 -0.4933154510626057 0.5304985100819815  0.187854599331762 -0.6281900592232541 0.4987253373128265  0.1504625078742185 -0.4631455710889698 0.4631699097377626  0.5053019851007623 -0.4639188236666469 -0.07333804255252858  0.5526823878021767 -0.6967835074188571 0.215903246388164  0.6541336653852354 -0.7283429953560903 0.01682686734495902  0.6106765895285129 -0.435572044232048 0.1342135044502026  1.287900750276439 -0.4687881345125656 0.5967914885117886  1.473254424964647 -0.2014289120459823 0.6388974134251688  1.252201609832917 -0.1994817872140489 0.4924873900544187  0.6933873765617349 -0.4558378836670255 -0.5791550267835122  0.4866071064794875 -0.3834461891956515 -0.6005511129213282  0.6019697230687768 -0.6242818145703938 -0.7168889634012832  1.902820210771035 -0.06211515387208391 -0.2891430129447606  1.990339083299429 0.001064238785733084 -0.07652382797423923  1.724478368935762 -0.003788849933621816 -0.09935623650575776  1.954875178599839 -0.1249628659413422 -0.1581861500923273  0.9809979007020542 0.3576737082789349 0.535667969994543  1.241639713161487 0.2329691467692865 0.4709274800730408  1.03542332926206 0.2261833785676189 0.277619257236822  0.844968024044826 0.2915591042812161 0.85479271387891  0.9643254804467414 0.1075471943400586 0.8675308624173648  0.7528609021968682 0.08903098632416863 0.6868333670574929  0 -0.2092988896484911 -0.7083966808149078  1.404920008928814 0.3372989555460403 0.316767914436192  1.004219460199691 -0.2737979137568052 -0.4388250598374921  1.180873089276474 -0.4621305164745083 -0.6560168552866585  1.053305258761655 -0.3284868324358208 -0.7801286865200052  0.9712979390145692 -0.5110446369696806 0.4327235545709323  1.146293004560022 -0.6668284527145589 0.469882080380535  0.8963334118470608 -0.7310840957918627 0.5111265403121084  1.08206659020357 -0.7596894074461439 0.3528958016823166  0.8015085840467554 -0.3389768733860401 0.6685991538206634  0.925104953366791 -0.4648901631989753 0.7519021955945258  0.9984935472219151 -0.3065996581170283 0.5499211474208088  1.002288197777214 -0.2792071613298824 0.8153893475416765  1.215846416214816 -0.2524645935340363 0.7497327115816464  0.3024217308764339 0.4448958319181652 -0.8808605755070491  0.390139049844082 0.2930948946191007 -0.9351790364388617  0.7478274009820868 -0.4286314222864522 0.5038265581755443  0.2148561413125 0.491329266113953 -0.05528733303340339  0.2309383938052318 0.714092978138881 -0.2036113182046372  0.1975535218752708 0.6794042289099913 0.05518288617085648  0.3761572698058325 0.4709053903224183 -0.110071861452686  0 0.5090940372412278 -0.5349460340386839  0 0.5350603504932784 -0.8430433168771743  0 0.6738578937333988 -0.737915259701458  0.164109593248377 0.5761575785324918 -0.5890928788615022  0.2475029747273103 -0.4561046932550408 0.8800394901604827  0.3694925429576245 -0.5958501646405832 0.7791131291684588  0.4406799393760092 -0.3650559370457628 0.6810505410128649  0 0.4382264083498228 0.5937380410910144  0 0.7379152597014565 0.6738578937334002  0.1559289910125653 0.445628518864029 0.6984925326213108  0.2324810536730123 0.5213808955010337 0.5258435644279391  0.3555983309770547 0.656027019032849 0.3461651671211329  0.2458237569105728 0.8801511092168622 0.4561636277282752  0.1607954010233367 0.6785216544507058 0.4667873694261923  0.3826204414382912 0.7779301383454942 0.5949541429760784  1.52119605566691 0.1993844535737337 -0.3296462252473032  1.414311204796628 0.3898129177969151 -0.2057175795712648  1.35043553368913 0.31412477587753 -0.3988690910712985  1.281185985486842 0.1662780899176228 -0.1943758563769023  1.099075518775129 0.05947806630170303 0.3306302206363526  0.3679939443262019 0.3447617450768622 0.6523888179221276  0.4109508094888962 0.2773549013757027 0.3912230928899285  0.1373126243972625 0.5009352089527304 -0.4461785342859961  0.2664596187693265 0.6010832976391717 -0.4365657049749609  0.2179946197840175 0.4409807484602174 -0.2220003033063632  0.2617145123926756 0.3390154592910617 -0.3562749789872797  0.5824068775984312 -0.3170408450840759 0.3306350426033773  0.7199893230774794 -0.3705530655917506 0.2326552719422485  0.8358295522502738 -0.2669244509736641 0.3143056243869983  0.5587150980897445 0.6294294572528504 -0.01623015267248071  0.753690685110203 0.6532057608559532 -0.2369277096202369  0.7001301874755437 0.7550693058622343 -0.0524082716182921  0.6800782824703502 0.4417054734682031 -0.04452076045795449  0.4884308328800496 -0.9272425338669441 -0.2789182923255702  0.3906764030666174 -0.9712790424584049 -0.1262145572896986  0.6009334315497298 -0.9480231963115218 -0.09890104373476166  0.420071318585673 -0.7193185330298141 -0.02275610742170561  1.385707654592962 0.3976065221960926 -0.5961074699430042  1.219420193990472 0.4625196146528674 -0.3667717582939762  1.149364473949646 0.3130412125134983 -0.4806343490178561  1.195708172099174 -0.7474690340482983 -0.2799311705246049  1.219932523946796 -0.5119522484128803 -0.1401161375153302  0 0.4628593543202276 0.8855632312882982  0.3015827308425723 0.3699196515636318 0.916118113296736  0.2831250486531117 0.5320147666868361 0.8321945108773773  0.3825795555914422 -0.6690296309761865 -0.2952055242879837  0.4043090205097222 0.4000926521875504 0.2655017005394236  0.5978414449389082 0.3237928842626442 0.3209363851519929  0.2645148779899891 -0.338943586656435 0.3561994752880429  0.4219521826235639 -0.4004970037301178 0.2625370852546315  0.2094134450411068 -0.427547835839946 0.2479337980438358  0.1857857161792982 0.4082826524643675 -0.7114865320202091  0.4350093809141001 -0.08779074384838936 -0.7057378089671015  0.621
[...]
<PointData  Vectors="state-0"> 
<DataArray  type="Float64"  Name="state-0"  NumberOfComponents="3" format="ascii">6.2669243116034765e-02 2.9404987038025431e-02 7.7236506601657762e-02  5.5825420121322716e-02 5.2246302129374594e-03 6.9355505351950134e-02  3.3402296642286604e-02 -4.7725167330388493e-02 3.0680892956581489e-02  6.3520123440058043e-02 -1.6108319618242516e-02 6.7482709328245308e-02  1.8006904716864364e-02 -1.3186188346071703e-01 -4.0221445868913124e-02  8.8994793250503305e-03 -1.0784689567439443e-01 2.2265279163738157e-02  9.7146085925364795e-03 -6.5250084488577317e-02 4.1952310077297432e-02  9.0113465613016371e-03 -5.7228348695849661e-02 4.9685171385525646e-02  7.5727720453590358e-02 -4.8271032169878381e-02 1.6642226895128209e-01  5.0358655486625679e-02 3.8135530403456769e-02 7.2108955774136618e-02  6.3580790502367798e-02 -8.2573231912009340e-02 1.6759245853817589e-01  7.8464061577667735e-02 -1.1038988082387391e-01 1.3592346979624287e-01  3.1409215511988935e-02 -4.7440875756538332e-02 3.0539178230674208e-03  5.7603777351197358e-02 -2.5335553805940027e-02 6.4970602662764845e-02  3.7571122166002779e-02 -5.1681504988375253e-02 -9.2879033334784394e-03  3.4219891220808617e-02 -4.4120359942440367e-02 1.4088244767503052e-02  0.0000000000000000e+00 -1.6600221795983158e-01 -1.0882985148881232e-01  0.0000000000000000e+00 -1.2460827003086236e-01 -1.0286309527294646e-01  0.0000000000000000e+00 -7.4272692119721345e-02 -1.3613911217048338e-01  9.7582286405933881e-03 -1.0670788287227073e-01 -1.2051880344409681e-01  0.0000000000000000e+00 -1.2610386592963632e-01 9.0739470907744729e-02  9.4149503926531878e-03 -5.2794447491743640e-02 8.6869904188598385e-02  6.9028700069988496e-03 -1.6646990244185528e-01 7.2934294903615832e-02  1.2519528175993808e-02 -3.1931091884439045e-02 9.9262454224401275e-02  7.5929781021978032e-02 2.9649636279354630e-02 -3.1128611218675984e-02  5.8610398691274705e-02 8.2874660697103697e-02 -5.7401718070345992e-04  1.6201122362458270e-01 9.9709170620688112e-02 7.1150752140459836e-02  1.5206424940197139e-01 1.9002632827397094e-02 1.1819078873843183e-01  4.7262686428529384e-02 -5.8546105318750825e-02 -6.7707051280588584e-02  5.8109873853309089e-02 -6.3535068270947570e-02 1.1053523594197860e-02  6.3019001786971715e-02 -5.6370541046145570e-02 -4.1800716998228828e-02  8.5237713516239738e-02 -6.0848347770427996e-02 -1.6624176483242875e-01  1.1436802719923934e-01 -2.4541192145002572e-02 4.3452218094534041e-02  2.4265188318068687e-01 -1.6586724497926933e-02 5.0730173685404688e-02  2.3875216725711426e-01 -4.5218621469349247e-02 -6.8244888276740620e-02  2.1751798967000391e-01 -6.3254618992671333e-02 -2.6823631706726840e-03  3.4805818089050242e-02 5.9970519305507057e-02 8.7306564483251997e-02  7.8464323903565725e-02 6.6298737558078608e-02 1.7143219227769826e-01  5.2225874077830005e-02 9.6400703979487995e-02 1.6849839247213252e-01  5.9271020967809639e-02 7.2436420128343462e-02 -1.9332061405017691e-03  3.2507236121927872e-02 -6.1647626837912070e-02 -8.0283075170809293e-02  3.7980245597610242e-02 -7.8900478834356011e-02 -1.3195277325759197e-02  2.3839668094746299e-02 -4.5885425044610968e-02 -3.1196507116129275e-02  3.3416095102687504e-02 1.0020120672116344e-01 -4.2226250824522076e-02  5.4981459714810325e-02 5.2201446051214392e-02 -5.7798423598515850e-02  5.2331547589771710e-02 1.7806534340597940e-01 -8.7855926568657733e-02  3.9744627361598325e-02 7.5958288596826740e-02 -7.6810851546435993e-02  0.0000000000000000e+00 7.3605164444861884e-02 -1.7791039991857602e-01  9.4766349716314986e-03 1.0443674737969103e-01 -1.2894032001600017e-01  8.8592855010465200e-03 1.4452497787974403e-01 -1.0910354385960651e-01  1.8449877354726554e-02 1.1613565679908458e-01 -1.6319306604291553e-01  5.6168031127737432e-02 7.3160088859922437e-02 -3.4498306358799941e-02  6.2277790735671724e-02 4.9145091403402105e-02 -6.1273047758700849e-02  6.5868752025768473e-02 1.9103953140130378e-01 -2.1532755468440648e-02  4.9771224952989634e-02 1.9188183660795241e-01 3.5159859348061789e-02  1.1908847971304871e-01 -5.8644298059073031e-04 1.4410779547614663e-01  7.8857203396107661e-02 7.1074704340291048e-02 -3.3415993025640058e-02  2.7603126112542290e-02 -2.1376144135724928e-02 1.4932414566234889e-01  2.4569341925766503e-02 3.2389496617556940e-02 1.1102540226171101e-01  4.6491190959633173e-02 4.3327913369550247e-02 7.7135564181517777e-02  8.0411780386413140e-02 -5.5879547657538317e-02 2.2611363908443153e-02  6.7961573087500088e-02 -3.3692929110101605e-02 -5.3615903082191274e-02  1.3666426279124438e-01 -2.2178985788982891e-02 -1.3725586133650325e-01  7.9108747845585498e-02 -4.3432383200242217e-02 -2.7900659397601224e-02  0.0000000000000000e+00 -4.5127353847374714e-02 -5.2613573307660325e-02  0.0000000000000000e+00 -5.9515754171068767e-02 -5.2717700443174267e-02  1.0802170504670522e-02 -3.7563531682118532e-02 -5.4763876099055558e-02  1.3064384001127138e-02 1.0719077252506344e-02 -1.1173070507619719e-01  1.6370090150557400e-02 -1.3380676722960511e-01 3.2404399107654080e-02  1.9953223198339982e-02 -1.0369781630441123e-01 7.2419027485463972e-02  5.8600764554040665e-03 -1.6698596463480969e-01 1.0375445793113845e-01  2.6249137097416816e-02 9.8863218393630922e-02 -8.1298371521765722e-02  1.3077553571294616e-02 5.7802502267014777e-02 -8.6789587261167228e-02  1.4955558326599104e-02 1.6808767444102413e-01 -1.2028262604017102e-01  2.8830827250473496e-02 -1.0597965537958588e-01 3.6311696872971651e-02  1.1550275222025513e-02 -1.1287992797127583e-01 3.1496601081348413e-02  7.5659793091289330e-03 -1.8273010127560702e-01 -1.0812962418593376e-02  3.6317085691655204e-02 -1.4215568108096915e-01 -1.5669614606404680e-01  3.3814116683113134e-02 -9.5943964381853097e-02 -7.8634500742485406e-04  3.8913872595992820e-02 -8.1893563821546972e-02 9.4519002656134822e-04  4.8430090565885354e-02 -1.8681200570340567e-01 -7.9707992303464897e-02  2.5898773529545244e-02 -4.3346538878941056e-02 3.1979384874360660e-02  2.9771736243457969e-02 -3.3890766704308309e-02 4.0326238516260167e-02  5.3736210288437933e-02 2.4922369345101444e-02 7.4157261978143332e-02  4.4232596543970146e-02 -5.8042090532466062e-02 -5.6142653474047441e-02  2.2867368882884844e-02 -1.1898318435713956e-02 -1.1866312749419282e-01  2.4259106846232208e-02 -4.5810738799905368e-02 -5.2501948802273435e-02  3.8042399608865490e-02 3.0601160821102757e-02 -6.0331697465418076e-02  6.9269789893139727e-02 5.1066479466230615e-02 -3.3217857531400399e-02  1.1589162987066629e-01 3.6730510604039736e-02 -1.9689343580121938e-02  4.4175467198247276e-02 7.2345665834436853e-03 -4.1668502990132639e-02  5.4834743940861762e-02 6.1813800087121173e-02 4.7519812300280184e-02  5.3540947006343778e-02 5.6265848581239647e-02 4.7960626506653489e-02  9.7314739459366889e-02 -1.2380778432414877e-02 1.6283204035248286e-01  2.1829614931679113e-02 1.1696316108184800e-02 5.2773855105954365e-02  2.5977102430976909e-02 -7.7948911489285043e-05 6.2253414904690420e-02  4.3851835150593446e-02 8.4900240994551963e-03 8.5811639828140843e-02  0.0000000000000000e+00 8.2182802352278095e-02 -1.3603331906437197e-01  6.8781154938211506e-02 5.5165576865926325e-02 1.5744977065353587e-02  5.8577232137553913e-02 1.3499946653819019e-02 -1.2378599802310065e-01  3.1548197123209977e-02 -9.9566512884174674e-03 -3.1577649683552728e-02  2.5378875553838137e-02 -1.9278356376386282e-03 -4.7190749280859014e-02  5.2167300285617176e-02 -1.0538500935410363e-02 7.9342398208995010e-02  3.3629862985952295e-02 -5.8997341004342611e-02 3.4720843367623926e-02  1.8972472401812036e-02 -5.5742555310322787e-02 3.0254094933601969e-02  2.6668313936099492e-02 -4.8850876560170883e-02 1.3223221155516943e-02  5.0900863374875774e-02 -1.0511190855443955e-02 8.0650307365346077e-02  2.4902249287258791e-02 -4.4075800678852702e-02 5.4105867843528312e-02  4.7259135985561793e-02 -1.8077194611706815e-02 7.5979137509238584e-02  2.2754271522195713e-02 -2.9118364801803031e-02 5.6304206228971893e-02  2.6518674870178484e-02 -3.2491676681218266e-02 5.2249386373994892e-02  3.0454396747482209e-03 1.8102209691354065e-02 -6.4565330652168934e-02  9.3889943114190185e-03 1.4448439795516355e-02 -6.6739172400387181e-02  4.2435455183966499e-02 -8.8059412953775146e-02 5.3572592576268938e-02  9.5946859736609474e-03 1.7326684080659166e-01 9.0683255643277047e-02  1.2243651103616946e-02 1.2454336993250945e-01 6.0906823189470417e-02  9.1900135751787505e-03 1.0072887925593839e-01 1.3552090592640742e-01  2.1386288930924813e-02 1.8606663962841100e-01 8.1278161755445333e-02  0.0000000000000000e+00 1.6237017693825831e-01 3.9762029927097589e-03  0.0000000000000000e+00 2.7248621582116612e-04 -8.0362569194966108e-02  0.0000000000000000e+00 1.6983014187046584e-02 -8.4530476619610717e-02  9.8303098952169776e-03 9.5298441687099542e-02 -4.6102563383177322e-02  5.1544795621188601e-03 -2.1290284423543904e-02 7.2771716911641554e-02  1.0752479486842798e-02 -3.6860425891441208e-02 6.3422583691052969e-02  2.9933643031687177e-02 -7.6054867484622979e-02 7.2703608202164011e-02  0.0000000000000000e+00 -4.0199434559665514e-02 1.5804129693988558e-01  0.0000000000000000e+00 7.1022030359930682e-02 1.4179570102313088e-02  9.8239867135655901e-03 1.6037283750967444e-02 1.1090942333316477e-01  1.5288466130690107e-02 5.7530694221758173e-03 1.3423792033412726e-01  1.9191162678199154e-02 5.2065078814236970e-02 1.0928550641800566e-01  8.8562370728974254e-03 7.0674800260478440e-02 2.1112889897438810e-02  6.3150165658581135e-03 6.4295021210755018e-02 9.2830798580051749e-02  1.0071613849907715e-02 5.6182779524763193e-02 3.3208488233995748e-02  9.2535505928201756e-02 1.4023286851512077e-02 -3.2012502199235453e-02  7.5509024713804107e-02 4.6466319282119938e-02 -4.5392520073862679e-02  8.8837507028714027e-02 -6.6254050170150448e-03 -5.0954261896403868e-02  1.3982633427564711e-01 1.3021903772787669e-01 -6.2208682979333586e-03  1.0854952721539340e-01 -8.6164925662660374e-02 1.2850937827697459e-01  2.1258861596960273e-02 -1.3474636373767147e-02 1.2292452914497023e-01  2.1500105132876556e-02 -8.3023151370766046e-03 2.0562523492582760e-01  6.5946530233649903e-03 1.7945780865330441e-01 2.5233302006541804e-02  1.9091782765349920e-02 1.2909760922243319e-01 6.7780475700871812e-03  1.0292550482778983e-02 1.9372663840220788e-01 2.2599550895826565e-02  1.5653029696138975e-02 1.9725143865246170e-01 -3.9196953034636953e-02  4.0704183366647773e-02 -2.0423694107149817e-01 2.6760557364848465e-02  6.0250893151572879e-02 -1.9330916105039603e-01 -3.1641705263032165e-02  7.6632611024935154e-02 -1.8466596477483460e-01 2.4479336448203749e-02  2.4102066473106629e-02 1.1873580856426351e-01 9.6203529639188462e-02  4.5700461545284794e-02 8.4225607114626524e-02 -1.1790516033461079e-02  5.2910998619265751e-02 8.8339615569170124e-02 -1.4900161827013489e-03  4.6522571832605338e-02 1.6126229713763968e-01 1.1611139449647762e-01  1.7081954926606500e-02 -7.0828927922314225e-02 -1.6280938529392264e-02  8.3281986176100518e-03 -6.5158906863353211e-02 -2.0653703115911227e-03  1.7702024369555820e-02 -6.5171120755412523e-02 -5.4320915708203198e-03  2.1789002406201539e-02 -1.0601090047420805e-01 -6.5335796064870541e-02  3.9531594222736804e-02 3.6683127709957256e-02 -3.4478130881548365e-02  7.7783461794271896e-02 4.2491571750145046e-03 -6.4193289042098173e-02  6.8003321199558292e-02 2.5718228416033318e-02 -5.6163184534763613e-02  3.2791425766377613e-02 -3.4277450150592373e-02 -2.8401771667128435e-02  6.0610860534260916e-02 -5.7746507754550050e-02 -4.2868322973637039e-03  0.0000000000000000e+00 6.2204365664530033e-02 3.9881249882557576e-02  1.0590701379457291e-02 3.5204530400411480e-02 6.5262948024723433e-02  5.9283880903302846e-03 4.5207413919260676e-02 4.9186413468868297e-02  2.2928500598260324e-02 -7.2472177088523479e-02 -9.7098985957127598e-02  2.1267984240503534e-02 6.3782896206368692e-02 1.9276706895269666e-01  3.9799978126906700e-02 1.6046745251829975e-02 1.9799693663464682e-01  7.9859978167470692e-03 -2.0148349238469299e-01 3.8187248299826698e-02  2.4293721843161718e-02 -2.0970277372575319e-01 -1.3620658331194392e-02  7.4233551855007679e-03 -1.9603520608666913e-01 -1.3487332321797427e-02  1.2550286494115692e-02 6.2286641529976206e-02 -6.3696935524671511e-02  2.6644752354343795e-02 6.3125145889963888e-02 -1.1597419011062531e-01  3.6051839495180329e-02 -4.3909428924666823e-02 -2.8870771418258723e-02  5.0587307350448120e-02 1.8513766279817052e-02 -1.0006437408191976e-01  4.3969093226669080e-02 9.4077690783462342e-02 -1.8363883548518087e-01  6.3761503950197862e-02 5.5961647904832899e-02 -4.4573246361350925e-02  3.8732277436277947e-02 5.2542949953695711e-02 1.2902678905805084e-02  2.4471036346683912e-02 -5.2661203432428028e-02 2.3873852233828621e-02  2.8237626216970176e-02 -5.4836352444142686e-02 7.9706472656328898e-03  2.0635248857803209e-02 -6.3582366922264946e-02 1.4837584380083747e-02  5.3357508686699376e-02 -6.1900683990600475e-02 4.9578687008842826e-02  3.3792941344284892e-02 7.4535319353078819e-02 4.8066072941969448e-02  1.2973822976671124e-02 -3.5179166584277569e-02 -9.4889093884089337e-02  8.4009796385145063e-03 -5.9640480671856490e-02 -4.3652644482062651e-02  1.0021267953102082e-02 -4.6686358410466249e-02 -5.3401999698479072e-02  1.3232637503873823e-02 -4.7904359104675678e-02 -4.0974821459498087e-02  3.5766898277950904e-02 3.5781302495377282e-02 3.8844977296375691e-02  3.3483644366613781e-02 4.0274718480205064e-02 3.6094121809285194e-02  2.3761112038826870e-02 1.1893043403929660e-01 -4.3057251892341539e-02  4.6351063098461515e-02 8.7569015610171413e-02 1.8471724590980274e-02  7.6191260162698712e-02 1.6008663380116206e-01 9.5212726812330700e-02  1.8202212561417644e-02 -1.8515707231200718e-01 -9.1988739611695278e-02  3.5617911455499258e-02 2.0149736561756643e-01 -7.9138452834309325e-04  3.4195432609489235e-02 -5.3950364351145502e-02 2.6186297465234581e-02  0.0000000000000000e+00 1.2162457886719762e-02 -1.9779502271509486e-01  0.0000000000000000e+00 3.4390190220173644e-02 -1.5570330591505002e-01  9.6949399513130818e-03 1.4560714086415509e-02 -1.2540726089644086e-01  9.4017180925381489e-03 -9.7520699819079737e-03 -2.0333631185808404e-01  1.0380395503143059e-02 -9.3874873346774829e-02 -6.8613874401717678e-02  0.0000000000000000e+00 1.7465075222042109e-01 -9.2980474969830570e-02  0.0000000000000000e+00 -7.9287643229482660e-02 3.4476069402916310e-02  9.5097763310932303e-03 -7.5363772304597273e-02 -1.1335793862954371e-02  1.0706406369678457e-03 -6.4042969953932646e-02 1.0671057313483433e-02  2.8824637049230811e-02 1.1005213824077928e-01 3.4624253398008877e-02  1.4410299212130745e-02 1.5697221495684063e-01 5.7943178261394383e-02  9.3809932494292106e-03 4.2717227597665698e-02 -2.8773579216522113e-02  6.4029646073087481e-03 7.3643653638638396e-02 1.8222457006498591e-01  6.7821272413898410e-03 2.6615162631901397e-02 1.8138858488850879e-01  2.5124888946087397e-02 9.8674836024387983e-03 -6.7299508909717615e-02  2.8097397542506640e-02 9.9360788957726098e-03 -5.4324193680536814e-02  5.0012581415168657e-02 5.3591833731927559e-02 -8.4170240795590628e-02  2.1236412067784462e-02 -3.7353328093109217e-03 -5.8860512855673792e-02  0.0000000000000000e+00 1.2214281999572972e-01 -9.8024362648663918e-02  1.0099131684157514e-02 6.5336285496338270e-02 9.6647891645429876e-02  1.5131738095330794e-02 -6.0448054789685846e-02 5.0029865367558192e-02  2.1739364762743522e-02 -5.1467584482780458e-02 4.3845349463031182e-02  3.8720554707073862e-02 -7.0306894246502383e-02 4.1231892317650190e-02  2.5005118086094829e-02 -5.7764278998788277e-02 -2.1265787237663893e-02  2.0702563437378124e-02 -6.2707180709893173e-02 2.5495230565876739e-03  4.7636039447865340e-02 -7.5257733191279472e-02 -1.4006091237697835e-02  3.8759275653723280e-02 1.6721045974306032e-03 9.4110615901246586e-02  3.0481035170785539e-02 -1.2802279465685759e-01 1.5971267878755629e-01  3.5484151672328081e-02 -4.9444131761665566e-02 9.8788794635332383e-02  2.8985883948165536e-02 -8.0861774514138188e-02 7.2501506048720785e-02  4.6845955343321796e-02 -1.3545522764309342e-01 1.4691234077803403e-01  1.4923917826389905e-02 -1.7499400201506702e-02 6.4198408846345908e-02  8.6812795038546144e-03 -6.7542462372001455e-02 2.9996463118602715e-02  1.3118581394565218e-02 -6.1994592475084709e-02 3.2954088621126865e-02  5.7344194784621279e-02 7.4312030687478853e-02 -4.2463888954270947e-03  4.4908528838796029e-02 -2.4007121578144032e-02 7.8922979640742630e-02  5.7999165041997862e-02 -5.1842656895894283e-02 -4.8760459795311156e-02  4.8901236138873462e-02 -7.3756310566129449e-03 -5.4277179450920908e-03  1.0918330494329903e-01 -4.4187191273790836e-03 -1.5413343977129826e-01  2.8439408376100015e-02 1.3293866756343042e-02 4.7754092031050036e-02  2.5212379857006615e-02 -5.5947690281076459e-03 5.2721722888060478e-02  3.3133260953300200e-02 1.3736382950457673e-01 4.7554831626952076e-03  1.0068913655561434e-01 -3.6367594865456182e-02 -1.6432765069845898e-02  3.6870709163328790e-02 2.3408455826028345e-02 -3.3712359451749448e-02  3.2707537836064116e-02 2.6335268993089470e-02 -3.3299123225122032e-02  7.7892141052948810e-02 -1.0667542999771287e-02 -4.8648083967320309e-02  7.6723541085006841e-02 -2.0850546537233845e-02 6.5473166850355743e-02  1.5977671941937950e-02 -3.2248833111816651e-02 -4.8156772747478760e-02  3.0384539071294132e-02 -4.1101523252359003e-02 -3.7129312740420084e-02  3.0139781373118787e-02 -1.7470709476182421e-02 -3.4389659052529671e-02  2.1877159543380157e-02 3.3598428852200504e-02 4.4459813776539625e-02  6.7511498411300955e-02 5.4798966839511881e-02 -1.1949912613583880e-02  3.0375594819800445e-02 4.9365918050345313e-02 5.1132447276452879e-02  7.5289414281579495e-02 4.5762472210141764e-02 4.1305430536925508e-02  0.0000000000000000e+00 1.5083573128137101e-01 -4.6377888916015755e-02  0.0000000000000000e+00 -1.1476915522218120e-02 -7.3926341929425890e-02  0.0000000000000000e+00 -3.0890814736648292e-03 -8.5297886951337623e-02  3.0207245112623245e-02 -6.3741187492038609e-02 1.9521090774783867e-01  4.3318023620349699e-02 -7.3978984157352518e-02 1.8620107381147749e-01  1.0756525149682039e-02 5.4866068177603373e-02 -4.1214780696130424e-02  0.0000000000000000e+00 3.9334473199519132e-02 -5.7171958580981654e-02  7.3334196987971728e-03 6.3621693366218743e-02 -2.4317938548328491e-02  2.0881551357294525e-02 -7.0423256481033175e-02 1.0791941141247201e-01  1.5557958051077445e-02 4.6011904993505095e-03 6.4370086341679705e-02  1.0611281544720089e-01 1.0715385672705752e-01 -1.0122122024622152e-01  8.1172792464720256e-02 -4.8137880908094191e-02 -3.1991884920609767e-02  1.2914335613070682e-01 1.0077763794055000e-01 -8.6464103285788615e-02  2.8141762693210743e-02 5.4271528688397977e-02 -1.4284089096413329e-02  2.0395798596216912e-02 6.6773020306203384e-02 -7.3599973152585658e-03  3.0609650689450596e-02 5.0637627103255631e-02 -3.3314510595754826e-02  0.0000000000000000e+00 -1.5731787202521938e-01 4.2959993128338515e-02  1.3420574295111702e-02 4.1712159753549478e-02 -1.0511017761469471e-01  2.5182946421133435e-02 4.4628126974177888e-02 3.8127321525967851e-02  2.3063920578479398e-02 5.7060631212216578e-02 3.1336290958382036e-02  2.6222012720020345e-02 5.2177839691102568e-02 8.6384349971914444e-03  6.5096995674659902e-02 6.6140305477875180e-02 -4.1774306991310968e-02  2.9930792630382407e-02 6.1888401886870496e-03 -5.1421618717518880e-02  4.0392895367791601e-02 1.8643038122233842e-02 -5.5224124761162605e-02  7.9060819328063331e-02 -4.3095525145330792e-02 -3.3870552070149017e-02  5.5095272933723356e-02 -8.1893359748165903e-02 6.3782679142314466e-03  1.0732772289008694e-01 -9.3532539472201401e-02 -1.2163217375440435e-01  8.5675947681664991e-02 -1.2632801052872417e-01 -1.2613672428741676e-01  3.2650308390825583e-02 5.3571075989840018e-02 1.7369068085244695e-02  3.2098652431367100e-02 5.7313799853892754e-02 2.8031791411774814e-03  5.7223982373001163e-03 -6.1782133328023063e-02 1.6544877234830299e-01  2.3618968357711542e-02 8.1271889930457530e-02 8.3456801464279182e-02  3.1540973730129186e-02 1.3780689816389710e-01 1.5089097504160970e-01  1.21