<?xml version="1.0"?>
<VTKFile type="UnstructuredGrid"  version="0.1"  >
<UnstructuredGrid>
<Piece  NumberOfPoints="562" NumberOfCells="2167">
<Points>
<DataArray  type="Float64"  NumberOfComponents="3"  format="ascii">1.368988780486386 -0.3330614804626422 0.3812091262482924  1.457971735921389 -0.1022985678317614 0.3848351862271924  1.610427907917255 -0.2543337204802068 0.5283220094529932  1.517018421924314 -0.2975870322441377 0.2373535790744415  0.2896649584838891 -0.6565336317944969 0.3023309575633568  0.1476062501325057 -0.7596307241376263 0.3283146094026839  0.2103887490757956 -0.916837934661527 0.3815037813901131  0.2689768990101102 -0.8331508488021908 0.5326326663736717  0.9156822098122387 0.1728678968738864 0.3547279359267569  0.9955038627747099 0.1533306194452782 0.6087026577562188  0.7890673547573852 0.1092600253823605 0.4080960165386402  0.9145731457487908 0.02582743292350364 0.3935106194697764  1.555529446910997 -0.5403673213763167 0.3112575692626874  1.348103006996482 -0.462351674863219 0.1749673809371412  1.400987129938871 -0.69735066861689 0.1355899121124687  1.379596868832529 -0.6110590497219095 0.3769781373204191  0 -0.4990262892337586 -0.03118914320056031  0 -0.7290746446371459 0.09885523113658878  0 -0.717672921293292 -0.1906601281732726  0.1968984162950436 -0.7040029471989069 -0.07369861360184334  0 -0.04626762634821223 0.7372759069896635  0.1747349115361219 -0.1710428392996126 0.8075209349320995  0.1736439618246974 -0.1962945897661325 0.6287261280994423  0.1554956487469918 0.01915161770726388 0.8205218561784148  1.468118261285947 0.4388895086210086 0.1612631929613552  1.314649208445651 0.4683262063503433 0.04261620133015324  1.344984587319364 0.2109573947886681 -0.02958325590058262  1.313873754896346 0.1816089619152257 0.1471166805105471  0.8054134969450556 -0.533449770498696 -0.3926139635083312  1.023959850515393 -0.6045695018332022 -0.2205179401063885  1.05215698719499 -0.4565551953633328 -0.3958586963103667  0.8906623628738856 -0.3599786025326254 -0.1746980748537972  1.697689701537584 -0.1214082871572868 0.1246812640999428  1.488464593112258 -0.01630978270888243 0.02506236650239546  1.430421324362075 -0.1422530463333789 0.0006438225420573964  1.443375672974065 -0.09622504486493764 0.09622504486493764  0.7321510998862281 0.5624492232270197 0.3646846381716035  0.9239002426432321 0.3480246702761787 0.1811782883685  0.7490852309803118 0.4095827285081708 0.1339143819021366  0.9285858048943815 0.6335571890886311 0.2734941480292951  0.5604589232358378 -0.5698201261526246 -0.445758982164192  0.6089524280343109 -0.7218043571025563 -0.2041610728153083  0.6992001125134369 -0.7541456942161303 -0.5502812588103354  0.6274724868209266 0.4419785778654846 -0.5250198354585243  0.8756473641379455 0.3468289673768704 -0.5629197215258924  0.67802877664681 0.1808686458692327 -0.4046923641025996  0.5747192133026287 0.2418214339106003 -0.6661394725993455  0 -0.05589422902377143 -0.4966102514551253  0.2056253598613783 -0.1053038618535594 -0.6787933827793691  0.1556038154442484 0.06282062757538044 -0.6543309982444776  0.2724660772724383 0.01271359915602951 -0.4910330623919412  0.9865780311818615 0.5347283976096202 -0.3161606543928742  0.8204442367782485 0.5439521650280197 -0.46835255331516  0.8298883357700151 0.2747691377838339 -0.3083728461704535  0.6862435664967209 0.3812464258315117 -0.228747855498907  1.177314513331318 0.2155896063490769 0.2140622858922932  1.267656842582551 0.5005914574877968 0.2726043363799996  0.5728594645233351 0.3135209056411565 0.5449126792957779  0.5106867385450642 0.5036153923917321 0.4965240972019211  0.7698782860739618 0.3545773464498151 0.5878168661371025  1.257062485956698 -0.4638359972454 -0.342956295722521  1.188194666541641 -0.2467563208328611 -0.4932880249876783  1.208812547869822 -0.2451038235802088 -0.1523648506518715  1.405543018003129 -0.3155823461555193 -0.3144549970062264  0 -0.1321637113190494 -0.9912279018522304  0 -0.3021402933326705 -0.9528694918273042  0.2240193167333228 -0.2163747517189394 -0.968604487305365  0.1588608620926228 -0.2417277328284706 -0.7863213987186402  0.234290723282165 -0.4158101367292431 0.6068160964348613  0.336171426774712 -0.1961275532959101 0.7074104293225126  0.2157572393158068 -0.1977293037481581 0.4531390059122784  0.3402759051114709 0.1630546516396377 -0.7060477597699854  0.1632882031789302 0.196780254177258 -0.7862562160633888  0.231029003331308 0.1880338449615072 -0.4559977997563014  0.4728863797400071 -0.4933154510626057 0.5304985100819815  0.187854599331762 -0.6281900592232541 0.4987253373128265  0.1504625078742185 -0.4631455710889698 0.4631699097377626  0.5053019851007623 -0.4639188236666469 -0.07333804255252858  0.5526823878021767 -0.6967835074188571 0.215903246388164  0.6541336653852354 -0.7283429953560903 0.01682686734495902  0.6106765895285129 -0.435572044232048 0.1342135044502026  1.287900750276439 -0.4687881345125656 0.5967914885117886  1.473254424964647 -0.2014289120459823 0.6388974134251688  1.252201609832917 -0.1994817872140489 0.4924873900544187  0.6933873765617349 -0.4558378836670255 -0.5791550267835122  0.4866071064794875 -0.3834461891956515 -0.6005511129213282  0.6019697230687768 -0.6242818145703938 -0.7168889634012832  1.902820210771035 -0.06211515387208391 -0.2891430129447606  1.990339083299429 0.001064238785733084 -0.07652382797423923  1.724478368935762 -0.003788849933621816 -0.09935623650575776  1.954875178599839 -0.1249628659413422 -0.1581861500923273  0.9809979007020542 0.3576737082789349 0.535667969994543  1.241639713161487 0.2329691467692865 0.4709274800730408  1.03542332926206 0.2261833785676189 0.277619257236822  0.844968024044826 0.2915591042812161 0.85479271387891  0.9643254804467414 0.1075471943400586 0.8675308624173648  0.7528609021968682 0.08903098632416863 0.6868333670574929  0 -0.2092988896484911 -0.7083966808149078  1.404920008928814 0.3372989555460403 0.316767914436192  1.004219460199691 -0.2737979137568052 -0.4388250598374921  1.180873089276474 -0.4621305164745083 -0.6560168552866585  1.053305258761655 -0.3284868324358208 -0.7801286865200052  0.9712979390145692 -0.5110446369696806 0.4327235545709323  1.146293004560022 -0.6668284527145589 0.469882080380535  0.8963334118470608 -0.7310840957918627 0.5111265403121084  1.08206659020357 -0.7596894074461439 0.3528958016823166  0.8015085840467554 -0.3389768733860401 0.6685991538206634  0.925104953366791 -0.4648901631989753 0.7519021955945258  0.9984935472219151 -0.3065996581170283 0.5499211474208088  1.002288197777214 -0.2792071613298824 0.8153893475416765  1.215846416214816 -0.2524645935340363 0.7497327115816464  0.3024217308764339 0.4448958319181652 -0.8808605755070491  0.390139049844082 0.2930948946191007 -0.9351790364388617  0.7478274009820868 -0.4286314222864522 0.5038265581755443  0.2148561413125 0.491329266113953 -0.05528733303340339  0.2309383938052318 0.714092978138881 -0.2036113182046372  0.1975535218752708 0.6794042289099913 0.05518288617085648  0.3761572698058325 0.4709053903224183 -0.110071861452686  0 0.5090940372412278 -0.5349460340386839  0 0.5350603504932784 -0.8430433168771743  0 0.6738578937333988 -0.737915259701458  0.164109593248377 0.5761575785324918 -0.5890928788615022  0.2475029747273103 -0.4561046932550408 0.8800394901604827  0.3694925429576245 -0.5958501646405832 0.7791131291684588  0.4406799393760092 -0.3650559370457628 0.6810505410128649  0 0.4382264083498228 0.5937380410910144  0 0.7379152597014565 0.6738578937334002  0.1559289910125653 0.445628518864029 0.6984925326213108  0.2324810536730123 0.5213808955010337 0.5258435644279391  0.3555983309770547 0.656027019032849 0.3461651671211329  0.2458237569105728 0.8801511092168622 0.4561636277282752  0.1607954010233367 0.6785216544507058 0.4667873694261923  0.3826204414382912 0.7779301383454942 0.5949541429760784  1.52119605566691 0.1993844535737337 -0.3296462252473032  1.414311204796628 0.3898129177969151 -0.2057175795712648  1.35043553368913 0.31412477587753 -0.3988690910712985  1.281185985486842 0.1662780899176228 -0.1943758563769023  1.099075518775129 0.05947806630170303 0.3306302206363526  0.3679939443262019 0.3447617450768622 0.6523888179221276  0.4109508094888962 0.2773549013757027 0.3912230928899285  0.1373126243972625 0.5009352089527304 -0.4461785342859961  0.2664596187693265 0.6010832976391717 -0.4365657049749609  0.2179946197840175 0.4409807484602174 -0.2220003033063632  0.2617145123926756 0.3390154592910617 -0.3562749789872797  0.5824068775984312 -0.3170408450840759 0.3306350426033773  0.7199893230774794 -0.3705530655917506 0.2326552719422485  0.8358295522502738 -0.2669244509736641 0.3143056243869983  0.5587150980897445 0.6294294572528504 -0.01623015267248071  0.753690685110203 0.6532057608559532 -0.2369277096202369  0.7001301874755437 0.7550693058622343 -0.0524082716182921  0.6800782824703502 0.4417054734682031 -0.04452076045795449  0.4884308328800496 -0.9272425338669441 -0.2789182923255702  0.3906764030666174 -0.9712790424584049 -0.1262145572896986  0.6009334315497298 -0.9480231963115218 -0.09890104373476166  0.420071318585673 -0.7193185330298141 -0.02275610742170561  1.385707654592962 0.3976065221960926 -0.5961074699430042  1.219420193990472 0.4625196146528674 -0.3667717582939762  1.149364473949646 0.3130412125134983 -0.4806343490178561  1.195708172099174 -0.7474690340482983 -0.2799311705246049  1.219932523946796 -0.5119522484128803 -0.1401161375153302  0 0.4628593543202276 0.8855632312882982  0.3015827308425723 0.3699196515636318 0.916118113296736  0.2831250486531117 0.5320147666868361 0.8321945108773773  0.3825795555914422 -0.6690296309761865 -0.2952055242879837  0.4043090205097222 0.4000926521875504 0.2655017005394236  0.5978414449389082 0.3237928842626442 0.3209363851519929  0.2645148779899891 -0.338943586656435 0.3561994752880429  0.4219521826235639 -0.4004970037301178 0.2625370852546315  0.2094134450411068 -0.427547835839946 0.2479337980438358  0.1857857161792982 0.4082826524643675 -0.7114865320202091  0.4350093809141001 -0.08779074384838936 -0.7057378089671015  0.621
[...]
<PointData  Vectors="state-0"> 
<DataArray  type="Float64"  Name="state-0"  NumberOfComponents="3" format="ascii">1.7005771934717008e-02 -7.7983299289762940e-03 1.2643094527539724e-02  1.6929231894048505e-02 -3.6792381133833266e-03 1.3957224773705606e-02  9.3747574543368989e-03 -5.0380335811007282e-03 1.1152371807690924e-02  1.8155333388969113e-02 -1.0273966246684878e-02 9.5478316319859789e-03  2.7895545899153597e-03 -2.3896977440406232e-02 1.0927303962052227e-02  1.3701100122006080e-03 -2.7380254178402067e-02 1.1752714795469353e-02  2.3926823135819592e-03 -1.9182983239284496e-02 6.9476178407272132e-03  2.5980163298635786e-03 -1.8704000691877526e-02 1.1707551299617119e-02  2.0117224748530123e-02 1.9305849039252459e-02 4.6655824237225647e-02  1.2841971670221566e-02 6.1142298276648356e-03 2.0626949516033919e-02  1.6715976616448597e-02 1.2621962308609673e-02 5.2007047550321837e-02  1.9913183827152427e-02 -1.3104836940916490e-03 4.9243646222482257e-02  9.8087799140032742e-03 -9.6633938895562023e-03 5.9806697131294558e-03  1.6968350037245922e-02 -1.3121818508578667e-02 7.4799238373968501e-03  9.6266586781916675e-03 -1.3933848230208308e-02 2.0535259251795892e-03  9.0773378246219068e-03 -1.1875010560332222e-02 8.0338862970451216e-03  0.0000000000000000e+00 -5.5860018919905156e-02 7.0123778802689525e-03  0.0000000000000000e+00 -2.9955968015337026e-02 -1.7610734409589384e-03  0.0000000000000000e+00 -2.8141761546950188e-02 -1.2083016193238755e-02  1.3577042678208431e-03 -3.4192782989358080e-02 -4.9203100688322513e-03  0.0000000000000000e+00 -5.3287868663447141e-03 2.6914925207646268e-02  1.6557127470072305e-03 -6.8843249525556826e-03 2.8574527479050586e-02  9.0570114279844892e-04 -1.1249543338984643e-02 3.8333977604833293e-02  1.9221477900508081e-03 -1.3986528193603864e-03 2.7703763258885957e-02  1.6060604893484799e-02 1.0169293836998198e-02 4.1909992819927008e-03  1.6966913796485246e-02 1.8925508064074923e-02 8.4458105440017399e-04  4.4276191733665315e-02 4.0069625977529368e-02 -6.6632338211719666e-05  4.2377132411366931e-02 2.7697669776542762e-02 2.9280448869628325e-02  1.0338229004277093e-02 -1.8424050629642953e-02 -1.2074052518719057e-02  1.2653331618778831e-02 -1.7151352172050310e-02 -4.2313557285919524e-03  1.4524253648092860e-02 -1.8540697012430926e-02 -1.4653535969706527e-02  2.1933484897646353e-02 -4.6076013542387426e-02 -2.7832200870108629e-02  2.2632622202120339e-02 -6.6640366257302080e-03 5.2419328819931620e-03  6.9106816136089766e-02 6.1860406195771616e-03 1.1107258624667885e-02  5.6910413492126728e-02 -2.7826211730467558e-02 -1.3253231127093815e-02  5.6175073546383666e-02 -2.0936065247714429e-02 1.3581976798592616e-02  8.3990611088729933e-03 2.0081286993820863e-02 1.1696922993911748e-02  2.1051178639450659e-02 4.8599026828553916e-02 2.8729635929284538e-02  1.3454555797274404e-02 5.2304265902856133e-02 2.1087126425055312e-02  1.0532869784474307e-02 2.1047505830129629e-02 7.2494072142737466e-03  6.5320119092731992e-03 -2.3547678354417293e-02 -1.4482380384331093e-02  7.1096295086856345e-03 -2.1040525799105012e-02 -3.1558369819593775e-03  5.5088469112301421e-03 -1.5992028842425472e-02 -1.1024206532436130e-02  6.1199356832102314e-03 1.2694323309830747e-02 -1.7279125493401895e-02  1.0682910866568612e-02 1.1543533111592097e-02 -1.8444717196613121e-02  1.2376723995127837e-02 2.4524122059338752e-02 -5.0831357769547079e-02  6.7408602596312640e-03 9.8442902850518141e-03 -2.4401913510247755e-02  0.0000000000000000e+00 -1.8181275686837105e-02 -5.2633229181383086e-02  2.3441204435270279e-03 -3.6567413346642232e-03 -3.4036836153698152e-02  1.2655411807540680e-03 1.9652601860456875e-03 -3.9075843668122584e-02  1.4310816160166607e-03 -4.7739621941267074e-03 -5.3411712398028444e-02  1.2120412027415506e-02 1.7246932957460954e-02 -1.0385655733027752e-02  1.0463853184771957e-02 1.6589694843753871e-02 -1.6776480434237788e-02  1.7285832498832403e-02 4.1963260586210659e-02 -3.9298097455223432e-02  1.1899170622303808e-02 4.4604877817530919e-02 -2.4647871970357223e-02  3.2730837771326945e-02 2.8579810030687231e-02 3.7380922631586128e-02  1.5196748185654982e-02 1.3377033291885269e-02 6.0152378189908652e-03  7.3157358923822474e-03 2.0595746437438087e-02 3.1664925955976225e-02  5.6038674743372954e-03 1.9364947634477575e-02 1.8242564962939314e-02  9.4497184911525259e-03 1.4927796898311944e-02 2.1354794614240679e-02  1.6951187679649718e-02 -1.4059813158982354e-02 -1.0988549739073145e-02  1.4230611052105928e-02 -7.5259289033335012e-03 -1.7632637893119495e-02  3.6571551180103933e-02 -3.3368308327241303e-02 -3.2981335911664300e-02  1.9657437908837325e-02 -1.0356650649746902e-02 -1.2808864400841861e-02  0.0000000000000000e+00 -2.3570359651397753e-03 -2.0903845254347672e-02  0.0000000000000000e+00 -6.5679411841185111e-03 -2.1784387493520161e-02  2.7840733017452787e-03 -4.4251125092730596e-03 -1.9947203549424097e-02  2.1550199472366964e-03 -7.9793988851734124e-03 -3.0000516063715330e-02  2.5457902441180782e-03 -1.6903144453165875e-02 2.2236054711340759e-02  2.6113059941482190e-03 -6.8145047333990558e-03 2.2963554939070086e-02  -1.7080711345056304e-03 -1.3996730696338324e-02 5.0422414326163408e-02  4.1071570900322813e-03 6.3364167490083459e-03 -2.4104281965353198e-02  1.4393208267971084e-03 7.1370695562169026e-03 -2.4972201397469980e-02  2.3392835860194887e-03 1.6989085534064682e-02 -5.6806258135574002e-02  5.0857857447279171e-03 -1.6196196364776674e-02 2.0157045800806347e-02  1.5827658709977358e-03 -2.5611306598299556e-02 1.9489059899096692e-02  5.9450973070998352e-04 -2.7132525808866180e-02 2.8496627953730473e-02  7.7717665513198763e-03 -6.0906267909134122e-02 -9.4138099197523303e-03  6.7272787208689042e-03 -2.1696238682414628e-02 7.4199584075285620e-03  8.2599511688938830e-03 -2.4402141543320679e-02 2.9301161223963339e-03  1.2037622943308915e-02 -5.7900309407221885e-02 1.6647301852567169e-02  7.8476780106076782e-03 -9.1235567665488033e-03 1.1711143973844476e-02  9.5117204588998291e-03 -4.3836232630666975e-03 1.3280067787874836e-02  1.4680965887799520e-02 -3.1393300028993861e-03 1.3115704023556695e-02  8.0552430005337364e-03 -1.6843839897414090e-02 -1.6118019895115944e-02  5.9250485837143586e-03 -1.8423194675753988e-02 -2.0939063211330447e-02  4.8903349007824578e-03 -1.3975282185982509e-02 -1.6100588384275576e-02  1.0751513366910629e-02 -1.6626755881449365e-04 -6.8175197264325913e-03  1.5692194815304605e-02 -3.9306471655306432e-04 -1.2524191250993658e-03  2.6390971174987860e-02 -2.4349086672857711e-04 -8.2775314008410577e-03  1.2109792667725772e-02 -2.8047294552778299e-03 -3.6776808612386819e-03  1.2082761193305751e-02 1.1527322705104684e-02 1.6775344935915194e-02  1.6204856023267409e-02 7.9299108492182965e-03 1.6431450178513069e-02  2.6666799012467379e-02 2.6560347309046425e-02 4.2079936625325366e-02  5.3197243617664957e-03 5.4782373186921113e-03 1.5925802428018592e-02  6.2813986612126130e-03 2.4096283680789051e-03 1.7473442744238208e-02  9.2748824137851016e-03 4.2115412568580549e-03 2.2772368315520895e-02  0.0000000000000000e+00 -5.3458872251547747e-03 -3.2253927774460435e-02  1.8031774464053175e-02 1.1113987349030281e-02 1.2092099896907366e-02  1.7281384965304163e-02 -1.7245053931058671e-02 -2.9271236668683708e-02  7.6285596217650275e-03 -9.6883947726975565e-03 -1.2994547452940097e-02  6.6059078597581382e-03 -5.6549218315388771e-03 -1.4663895541219406e-02  1.0386974863874581e-02 -8.6339964619516207e-03 1.1952930993762800e-02  8.1758359519824679e-03 -1.4196577767634649e-02 1.0192152190568866e-02  5.1781820277558965e-03 -1.3544828664516329e-02 9.4807935352656074e-03  6.8911031731170840e-03 -1.3739349725644159e-02 6.5902570825791306e-03  8.8361371830804510e-03 -9.8842422484752088e-03 2.3934560775361720e-02  6.3465920146978765e-03 -8.6253856274290264e-03 1.5495950924167131e-02  1.1613393637924015e-02 -8.4782026602094867e-03 2.0119103955575326e-02  7.0649431810745232e-03 -5.9335273393632338e-03 1.6588071023518683e-02  8.0033413832144122e-03 -5.3534034003302087e-03 1.6099207547444448e-02  2.0291549363446377e-03 8.4127167652517758e-03 -1.6852794463897456e-02  2.6871591533565321e-03 6.5777343781757616e-03 -1.8367821638696803e-02  1.0030871035234300e-02 -1.5460253117174895e-02 2.2034615090443965e-02  1.0537083520914805e-03 5.0096016420112639e-02 -1.1495391421476344e-02  2.5139458248072083e-03 2.5911656650672760e-02 -6.1670184263662485e-03  2.0187158826057900e-03 3.4338705912526531e-02 3.0949792228566258e-03  3.1942939401342616e-03 5.2488011676351184e-02 -1.4825400868210218e-02  0.0000000000000000e+00 2.5390397035395321e-02 -1.9125019677130727e-02  0.0000000000000000e+00 9.9737122362383423e-03 -1.6467648376417537e-02  0.0000000000000000e+00 1.5086500689911554e-02 -1.7147123942007868e-02  1.9755768730550993e-03 2.3075177287695068e-02 -2.2015060602450568e-02  1.8309014371347512e-03 -9.5383822137602194e-03 1.7996211844420153e-02  2.7312142933461556e-03 -1.2877141901861787e-02 1.7198942048214417e-02  5.5958704987701642e-03 -1.3508374662055872e-02 2.6278097112983130e-02  0.0000000000000000e+00 1.5312348677939855e-02 2.7059781099474191e-02  0.0000000000000000e+00 1.5786478162317250e-02 1.5069615097204078e-02  1.3534499069838089e-03 1.4395907981098388e-02 2.6048497093925385e-02  2.9803787692183571e-03 1.6603758366307671e-02 1.9225957286128029e-02  3.8726158520812296e-03 2.0994867040758428e-02 1.2648923471499957e-02  2.4109378112765994e-03 1.8465532440216526e-02 9.7184988975682791e-03  1.3391932125705252e-03 2.5225836957105570e-02 1.8571695376802359e-02  2.7730525793905553e-03 1.6021882980004148e-02 1.2550177985996060e-02  1.9894732272573139e-02 7.3727567803328186e-03 -9.7515533998088662e-03  1.8032149634396599e-02 1.1210237016054489e-02 -5.7077847769660449e-03  1.8488168598462501e-02 1.0419725492869375e-02 -1.3390406226563881e-02  3.7305635845718235e-02 2.9302711102331038e-02 -2.4277972508042863e-02  2.8336007068548955e-02 1.8831521321066914e-03 4.8218207850066239e-02  3.6911821427379875e-03 1.2825736777673367e-02 2.4498298275154349e-02  3.5269492353721711e-03 3.3291401200572932e-02 4.5849459241236602e-02  1.1501575857933094e-03 3.0696290547542363e-02 -2.1705581985937743e-02  2.5675566195731011e-03 2.0928862217127676e-02 -1.3982693460711421e-02  9.5425897757002800e-04 4.2183482482137165e-02 -2.8526098903637866e-02  2.1805783356498962e-03 3.5311127490452482e-02 -4.1387543902973008e-02  9.4312466378398529e-03 -4.1142516305020554e-02 4.4457728484152942e-02  1.5252129854469573e-02 -5.0264924585244786e-02 2.9657688363536949e-02  1.9538126153331867e-02 -3.7945855612104493e-02 3.8950923131771939e-02  6.2731257367857410e-03 3.7010993881021012e-02 -1.9412726551393121e-03  6.8896920897904236e-03 1.7926176792192636e-02 -8.2274393452133783e-03  8.6272040052205526e-03 2.7802281915832366e-02 -3.2319420004080393e-03  1.1174927889618883e-02 5.4870807210636231e-02 -2.6325883404212840e-03  4.1581965605925666e-03 -1.9902222592557854e-02 -5.6441507225759970e-03  3.3659631198489047e-03 -2.1154066879240530e-02 -2.4641121698395093e-03  4.7904365464008711e-03 -2.0320002435588198e-02 -1.9545574927747177e-03  3.7552854137537705e-03 -2.6891373858284429e-02 7.8378748352393572e-04  1.0123529737490698e-02 7.9647244863996179e-03 -1.1735324732809580e-02  1.6285776608112937e-02 1.3277342905550096e-02 -1.1640734627656154e-02  1.4401999977616242e-02 1.0796830689258637e-02 -1.6662387659874649e-02  8.4658700100050076e-03 -1.4244023917313980e-02 -6.5105838881124121e-03  1.5724088188306815e-02 -1.7449687655253579e-02 -3.6620940712907449e-03  0.0000000000000000e+00 8.7169308432600828e-03 1.8748032599239267e-02  2.8364399833515127e-03 7.6613153836379063e-03 2.0668550435402232e-02  2.2342063200402160e-03 1.1245470501460342e-02 1.6682587631803435e-02  4.0622593569866628e-03 -2.6024183765688758e-02 -1.0611533370180944e-02  4.1073082836734368e-03 4.6957619856402080e-02 3.0820335466672122e-02  9.7226935098249558e-03 3.5914929245514308e-02 3.8845013501529121e-02  -9.3950782209098200e-04 -3.5352051414246674e-02 4.2361063923039607e-02  3.8556299708189757e-03 -5.0351886012291687e-02 3.5543410268737315e-02  -3.3100176733736415e-04 -4.1400989792431120e-02 3.2009403780645485e-02  1.2170719621485608e-03 1.0761039237002109e-02 -1.7023983675093255e-02  5.6977676333009458e-03 -1.5799933357618957e-03 -2.6346792539984266e-02  4.8728577573062780e-03 -6.2938827204536566e-03 -1.1998300119226710e-02  8.9053815173954221e-03 -3.1889230591373983e-03 -2.6714982590213730e-02  9.8318594632855558e-03 -1.0464495793455243e-02 -6.0183542099666004e-02  1.5267840839850133e-02 1.6832931377208132e-02 -6.5445672871324821e-03  1.0215464532002779e-02 1.3440390994837870e-02 -9.7190781567740013e-04  6.4570485773974449e-03 -1.4828163859407141e-02 7.4626364530027897e-03  7.3390427713067889e-03 -1.6685527471562555e-02 5.0510406480249468e-03  5.7349618675795458e-03 -1.7910255033076573e-02 4.9628702897098632e-03  1.1066251847125196e-02 -2.1347793331482262e-02 4.7669232401253052e-03  6.5077255144545742e-03 2.2671152260942861e-02 1.0504172226712870e-02  1.1815589382729399e-03 -1.3719485050167549e-02 -2.0749238139685877e-02  2.0234497360011603e-03 -1.3086626306262195e-02 -1.5622329328714759e-02  2.7296729504890441e-03 -1.1478826914711250e-02 -1.7751467644875257e-02  2.8944372839274477e-03 -1.3183181120256408e-02 -1.4576129221549172e-02  8.1360442466825809e-03 1.1632520712724479e-02 8.2130345009155011e-03  9.8169766465462834e-03 1.2893115831108169e-02 6.6042759993051236e-03  3.5472995100576912e-03 1.4237769851564164e-02 -1.9703543080955659e-02  1.0217205585637193e-02 2.2462407216460506e-02 -2.3530969248596644e-04  2.1737454777858475e-02 5.5415428555558040e-02 -6.5911757416703401e-03  1.9689199024260358e-03 -5.7055026701262022e-02 1.3648011427656195e-02  7.3074498251691489e-03 4.3055701228968173e-02 -3.4739331863146740e-02  9.2521948753115542e-03 -8.3869868249758298e-03 9.5818001929142936e-03  0.0000000000000000e+00 -3.3706256117783259e-02 -4.6458119869959860e-02  0.0000000000000000e+00 -1.1994755332707049e-02 -2.5461100359522884e-02  1.2081915714434904e-03 -1.2006740759424636e-02 -2.3045276365580278e-02  1.1700089351766208e-03 -3.7602115626293522e-02 -4.0885741253498080e-02  1.3433811383513027e-03 -3.0641956437703614e-02 -1.2660321263314267e-02  0.0000000000000000e+00 2.2403509444175327e-02 -5.4080712488874860e-02  0.0000000000000000e+00 -2.2408471279860946e-02 -4.7191760378370385e-03  3.0585439777116247e-03 -2.1655417679477991e-02 -6.0623474163203827e-03  2.2131657367467903e-03 -2.2253555628504288e-02 -2.3542117877244362e-03  4.6885447541032974e-03 2.5540896916376399e-02 -5.7911310349885135e-03  3.5517446064895473e-03 3.3662037618457125e-02 -1.5351065705881116e-02  2.4991684491207354e-03 1.8591012958483248e-02 -6.5769093730657438e-03  -5.3299259259904463e-04 4.5813812720583817e-02 2.4071431526725411e-02  1.0523414338841901e-03 3.2831914408317668e-02 2.2076941078713774e-02  4.9050928290673293e-03 2.3547399706314470e-03 -1.8919348468048616e-02  6.7541130996002707e-03 2.4931905831250254e-03 -1.7389094565435800e-02  9.3651016132483590e-03 4.3954906731996516e-03 -2.1944201534169417e-02  5.9686507022515510e-03 -1.8856334417364376e-03 -1.8787681896152240e-02  0.0000000000000000e+00 3.7614854515559343e-03 -3.0735981401989392e-02  1.2421415461055102e-03 2.2011036353396015e-02 1.0407136512587260e-02  4.0790487229836530e-03 -1.7514465345141145e-02 1.2971779622088021e-02  5.1776517618575451e-03 -1.4829551015087972e-02 1.3722284636486599e-02  5.9450842169251122e-03 -1.5268263186697337e-02 1.1485793140531404e-02  6.2329128456771899e-03 -1.7668660127900127e-02 -6.0570698093415669e-03  5.5568811021670696e-03 -1.7525346937342069e-02 9.4148317273232260e-04  1.0491883717677062e-02 -1.8804382022449113e-02 -2.7868161142716578e-03  5.5494206610536218e-03 5.5486961609159001e-03 2.2583895639547512e-02  6.5468811761353659e-03 5.0383342280424894e-04 5.8093766065043198e-02  6.9005455699717635e-03 1.2888087830323746e-04 2.9047848864297222e-02  6.7506949902285630e-03 -7.1230837294441263e-03 2.2730147667874522e-02  1.1664409393443188e-02 -3.7284981600083597e-03 5.5798597723114761e-02  3.5381489476390970e-03 -5.7573078621463488e-03 1.9638826702810957e-02  1.8770995276591747e-03 -1.9982349103621892e-02 3.8207103212493706e-03  3.0538745222589815e-03 -1.8976573943299376e-02 7.4945117310278092e-03  1.3449308288715874e-02 2.1928100527647595e-02 5.1690974901725190e-03  9.8722117525647281e-03 -2.7356425234607066e-03 2.3794361577141900e-02  1.2315242877842950e-02 -8.8608517438179730e-04 3.7370730356430393e-04  -4.6966576037919182e-04 8.0803892159285646e-04 -2.8948765611674218e-03  2.9610182149865705e-02 -3.3256580697739437e-02 -3.7562326623908938e-02  8.2047688975192875e-03 6.2090246956880753e-03 1.4646119672502584e-02  7.6642756144111989e-03 2.2033761821974290e-03 1.5237394715963368e-02  8.3733137381629564e-03 2.9306788330422089e-02 -1.9488609940325141e-02  1.5848034119796937e-02 2.7147296939691603e-03 -1.1137543550718771e-02  9.6490461358487364e-03 3.8900650064026465e-03 -1.2387272454646972e-02  8.9669034607975633e-03 2.0600673004957776e-03 -1.2379748676387081e-02  1.7631904623362501e-02 4.4123256497610470e-03 -1.6377965716779064e-02  1.5123952311597201e-02 -1.0286799329688961e-02 -3.2103160321789647e-03  9.2167485687453081e-03 -1.1180703138385900e-02 -5.3587996682247247e-03  9.3073316435725948e-03 -1.0804720173079924e-02 -3.7735004878679014e-03  8.5022802385176666e-03 -1.1717114452450777e-02 -7.1112394503527656e-03  9.1121300217137189e-03 8.9503448659962199e-03 6.0242749377733230e-03  1.6833931965552228e-02 7.7827696278187095e-03 6.8415586400486753e-04  1.0809403170165566e-02 7.7067994562109885e-03 4.1373358202474219e-03  1.7501920494846921e-02 4.7290995040725195e-03 9.8856434077341220e-03  0.0000000000000000e+00 1.3146723728591974e-02 -2.1106143442050095e-02  0.0000000000000000e+00 6.3581530534126294e-03 -2.0077704190234739e-02  0.0000000000000000e+00 7.9055373544223186e-03 -1.8570900588206762e-02  6.3485445463283647e-03 1.9918841197767420e-02 5.1941051388954967e-02  1.0737295669509567e-02 1.6984527891316901e-02 5.2499122767681754e-02  2.0228580239857589e-03 1.9682854253435855e-02 -7.4950148251576500e-03  0.0000000000000000e+00 1.9047240651173407e-02 -5.0911588181173544e-03  2.9292444284051262e-03 1.8715000635201273e-02 -3.4440539145847086e-03  2.8793799978772644e-03 1.7817120077571859e-03 2.5417386936223477e-02  3.1172299348412916e-03 4.5896804284227067e-04 1.9265394029982886e-02  2.7974863586205351e-02 5.6324150883628387e-03 -4.3247944115560030e-02  1.5428173091660290e-02 -1.3451178708829606e-03 -1.6721078424137007e-02  3.4304685964035943e-02 7.4602469113595384e-03 -3.9073997142474309e-02  6.4029693986536696e-03 1.7277170591741050e-02 -7.3367232530343728e-03  4.7527916854150079e-03 1.8394228951865418e-02 -3.4681748348110238e-03  6.1218804083004686e-03 1.5388394001469840e-02 -1.0033627630702677e-02  0.0000000000000000e+00 -1.6876991012873821e-02 2.3364319381123894e-02  1.9224717312379188e-03 2.0083787423564948e-03 -3.1545426463760483e-02  7.1225660326644279e-03 1.4323188571455979e-02 7.8409897602134595e-03  5.9454150359834592e-03 1.7256356050354027e-02 5.6434449507898245e-03  7.5635343393091695e-03 1.7228158853090137e-02 1.4833509725809354e-04  1.3922008496002456e-02 2.2831687356315668e-02 -5.6662676400666030e-03  9.3658942215835740e-03 -3.3471767541239637e-03 -1.4584799888587460e-02  9.7427431127477381e-03 -1.0036078922366756e-04 -1.0154813131937473e-02  1.7257851458475078e-02 -1.6577667479315331e-03 -1.4156778616041693e-02  1.4693514098579007e-02 -2.2493035627547731e-02 5.0694190982730741e-03  2.8068369616120158e-02 -4.7457274385855203e-02 -9.0580374050868596e-03  2.1493851785831679e-02 -5.3659467271435467e-02 -5.5232867505645407e-03  9.6274621997351935e-03 1.6074800484489199e-02 -3.6522006424791794e-04  8.2630360908450447e-03 1.6711665314750660e-02 -2.7567187199803453e-03  6.1528204215343209e-04 1.8557464868334369e-02 3.2702174658687043e-02  3.6256004846118889e-03 1.9941868204824527e-02 4.1741401662780779e-03  6.7970465149654741e-03 5.2548940566808186e-02 8.1899201576534561e-0