<?xml version="1.0"?>
<VTKFile type="UnstructuredGrid"  version="0.1"  >
<UnstructuredGrid>
<Piece  NumberOfPoints="562" NumberOfCells="2167">
<Points>
<DataArray  type="Float64"  NumberOfComponents="3"  format="ascii">1.368988780486386 -0.3330614804626422 0.3812091262482924  1.457971735921389 -0.1022985678317614 0.3848351862271924  1.610427907917255 -0.2543337204802068 0.5283220094529932  1.517018421924314 -0.2975870322441377 0.2373535790744415  0.2896649584838891 -0.6565336317944969 0.3023309575633568  0.1476062501325057 -0.7596307241376263 0.3283146094026839  0.2103887490757956 -0.916837934661527 0.3815037813901131  0.2689768990101102 -0.8331508488021908 0.5326326663736717  0.9156822098122387 0.1728678968738864 0.3547279359267569  0.9955038627747099 0.1533306194452782 0.6087026577562188  0.7890673547573852 0.1092600253823605 0.4080960165386402  0.9145731457487908 0.02582743292350364 0.3935106194697764  1.555529446910997 -0.5403673213763167 0.3112575692626874  1.348103006996482 -0.462351674863219 0.1749673809371412  1.400987129938871 -0.69735066861689 0.1355899121124687  1.379596868832529 -0.6110590497219095 0.3769781373204191  0 -0.4990262892337586 -0.03118914320056031  0 -0.7290746446371459 0.09885523113658878  0 -0.717672921293292 -0.1906601281732726  0.1968984162950436 -0.7040029471989069 -0.07369861360184334  0 -0.04626762634821223 0.7372759069896635  0.1747349115361219 -0.1710428392996126 0.8075209349320995  0.1736439618246974 -0.1962945897661325 0.6287261280994423  0.1554956487469918 0.01915161770726388 0.8205218561784148  1.468118261285947 0.4388895086210086 0.1612631929613552  1.314649208445651 0.4683262063503433 0.04261620133015324  1.344984587319364 0.2109573947886681 -0.02958325590058262  1.313873754896346 0.1816089619152257 0.1471166805105471  0.8054134969450556 -0.533449770498696 -0.3926139635083312  1.023959850515393 -0.6045695018332022 -0.2205179401063885  1.05215698719499 -0.4565551953633328 -0.3958586963103667  0.8906623628738856 -0.3599786025326254 -0.1746980748537972  1.697689701537584 -0.1214082871572868 0.1246812640999428  1.488464593112258 -0.01630978270888243 0.02506236650239546  1.430421324362075 -0.1422530463333789 0.0006438225420573964  1.443375672974065 -0.09622504486493764 0.09622504486493764  0.7321510998862281 0.5624492232270197 0.3646846381716035  0.9239002426432321 0.3480246702761787 0.1811782883685  0.7490852309803118 0.4095827285081708 0.1339143819021366  0.9285858048943815 0.6335571890886311 0.2734941480292951  0.5604589232358378 -0.5698201261526246 -0.445758982164192  0.6089524280343109 -0.7218043571025563 -0.2041610728153083  0.6992001125134369 -0.7541456942161303 -0.5502812588103354  0.6274724868209266 0.4419785778654846 -0.5250198354585243  0.8756473641379455 0.3468289673768704 -0.5629197215258924  0.67802877664681 0.1808686458692327 -0.4046923641025996  0.5747192133026287 0.2418214339106003 -0.6661394725993455  0 -0.05589422902377143 -0.4966102514551253  0.2056253598613783 -0.1053038618535594 -0.6787933827793691  0.1556038154442484 0.06282062757538044 -0.6543309982444776  0.2724660772724383 0.01271359915602951 -0.4910330623919412  0.9865780311818615 0.5347283976096202 -0.3161606543928742  0.8204442367782485 0.5439521650280197 -0.46835255331516  0.8298883357700151 0.2747691377838339 -0.3083728461704535  0.6862435664967209 0.3812464258315117 -0.228747855498907  1.177314513331318 0.2155896063490769 0.2140622858922932  1.267656842582551 0.5005914574877968 0.2726043363799996  0.5728594645233351 0.3135209056411565 0.5449126792957779  0.5106867385450642 0.5036153923917321 0.4965240972019211  0.7698782860739618 0.3545773464498151 0.5878168661371025  1.257062485956698 -0.4638359972454 -0.342956295722521  1.188194666541641 -0.2467563208328611 -0.4932880249876783  1.208812547869822 -0.2451038235802088 -0.1523648506518715  1.405543018003129 -0.3155823461555193 -0.3144549970062264  0 -0.1321637113190494 -0.9912279018522304  0 -0.3021402933326705 -0.9528694918273042  0.2240193167333228 -0.2163747517189394 -0.968604487305365  0.1588608620926228 -0.2417277328284706 -0.7863213987186402  0.234290723282165 -0.4158101367292431 0.6068160964348613  0.336171426774712 -0.1961275532959101 0.7074104293225126  0.2157572393158068 -0.1977293037481581 0.4531390059122784  0.3402759051114709 0.1630546516396377 -0.7060477597699854  0.1632882031789302 0.196780254177258 -0.7862562160633888  0.231029003331308 0.1880338449615072 -0.4559977997563014  0.4728863797400071 -0.4933154510626057 0.5304985100819815  0.187854599331762 -0.6281900592232541 0.4987253373128265  0.1504625078742185 -0.4631455710889698 0.4631699097377626  0.5053019851007623 -0.4639188236666469 -0.07333804255252858  0.5526823878021767 -0.6967835074188571 0.215903246388164  0.6541336653852354 -0.7283429953560903 0.01682686734495902  0.6106765895285129 -0.435572044232048 0.1342135044502026  1.287900750276439 -0.4687881345125656 0.5967914885117886  1.473254424964647 -0.2014289120459823 0.6388974134251688  1.252201609832917 -0.1994817872140489 0.4924873900544187  0.6933873765617349 -0.4558378836670255 -0.5791550267835122  0.4866071064794875 -0.3834461891956515 -0.6005511129213282  0.6019697230687768 -0.6242818145703938 -0.7168889634012832  1.902820210771035 -0.06211515387208391 -0.2891430129447606  1.990339083299429 0.001064238785733084 -0.07652382797423923  1.724478368935762 -0.003788849933621816 -0.09935623650575776  1.954875178599839 -0.1249628659413422 -0.1581861500923273  0.9809979007020542 0.3576737082789349 0.535667969994543  1.241639713161487 0.2329691467692865 0.4709274800730408  1.03542332926206 0.2261833785676189 0.277619257236822  0.844968024044826 0.2915591042812161 0.85479271387891  0.9643254804467414 0.1075471943400586 0.8675308624173648  0.7528609021968682 0.08903098632416863 0.6868333670574929  0 -0.2092988896484911 -0.7083966808149078  1.404920008928814 0.3372989555460403 0.316767914436192  1.004219460199691 -0.2737979137568052 -0.4388250598374921  1.180873089276474 -0.4621305164745083 -0.6560168552866585  1.053305258761655 -0.3284868324358208 -0.7801286865200052  0.9712979390145692 -0.5110446369696806 0.4327235545709323  1.146293004560022 -0.6668284527145589 0.469882080380535  0.8963334118470608 -0.7310840957918627 0.5111265403121084  1.08206659020357 -0.7596894074461439 0.3528958016823166  0.8015085840467554 -0.3389768733860401 0.6685991538206634  0.925104953366791 -0.4648901631989753 0.7519021955945258  0.9984935472219151 -0.3065996581170283 0.5499211474208088  1.002288197777214 -0.2792071613298824 0.8153893475416765  1.215846416214816 -0.2524645935340363 0.7497327115816464  0.3024217308764339 0.4448958319181652 -0.8808605755070491  0.390139049844082 0.2930948946191007 -0.9351790364388617  0.7478274009820868 -0.4286314222864522 0.5038265581755443  0.2148561413125 0.491329266113953 -0.05528733303340339  0.2309383938052318 0.714092978138881 -0.2036113182046372  0.1975535218752708 0.6794042289099913 0.05518288617085648  0.3761572698058325 0.4709053903224183 -0.110071861452686  0 0.5090940372412278 -0.5349460340386839  0 0.5350603504932784 -0.8430433168771743  0 0.6738578937333988 -0.737915259701458  0.164109593248377 0.5761575785324918 -0.5890928788615022  0.2475029747273103 -0.4561046932550408 0.8800394901604827  0.3694925429576245 -0.5958501646405832 0.7791131291684588  0.4406799393760092 -0.3650559370457628 0.6810505410128649  0 0.4382264083498228 0.5937380410910144  0 0.7379152597014565 0.6738578937334002  0.1559289910125653 0.445628518864029 0.6984925326213108  0.2324810536730123 0.5213808955010337 0.5258435644279391  0.3555983309770547 0.656027019032849 0.3461651671211329  0.2458237569105728 0.8801511092168622 0.4561636277282752  0.1607954010233367 0.6785216544507058 0.4667873694261923  0.3826204414382912 0.7779301383454942 0.5949541429760784  1.52119605566691 0.1993844535737337 -0.3296462252473032  1.414311204796628 0.3898129177969151 -0.2057175795712648  1.35043553368913 0.31412477587753 -0.3988690910712985  1.281185985486842 0.1662780899176228 -0.1943758563769023  1.099075518775129 0.05947806630170303 0.3306302206363526  0.3679939443262019 0.3447617450768622 0.6523888179221276  0.4109508094888962 0.2773549013757027 0.3912230928899285  0.1373126243972625 0.5009352089527304 -0.4461785342859961  0.2664596187693265 0.6010832976391717 -0.4365657049749609  0.2179946197840175 0.4409807484602174 -0.2220003033063632  0.2617145123926756 0.3390154592910617 -0.3562749789872797  0.5824068775984312 -0.3170408450840759 0.3306350426033773  0.7199893230774794 -0.3705530655917506 0.2326552719422485  0.8358295522502738 -0.2669244509736641 0.3143056243869983  0.5587150980897445 0.6294294572528504 -0.01623015267248071  0.753690685110203 0.6532057608559532 -0.2369277096202369  0.7001301874755437 0.7550693058622343 -0.0524082716182921  0.6800782824703502 0.4417054734682031 -0.04452076045795449  0.4884308328800496 -0.9272425338669441 -0.2789182923255702  0.3906764030666174 -0.9712790424584049 -0.1262145572896986  0.6009334315497298 -0.9480231963115218 -0.09890104373476166  0.420071318585673 -0.7193185330298141 -0.02275610742170561  1.385707654592962 0.3976065221960926 -0.5961074699430042  1.219420193990472 0.4625196146528674 -0.3667717582939762  1.149364473949646 0.3130412125134983 -0.4806343490178561  1.195708172099174 -0.7474690340482983 -0.2799311705246049  1.219932523946796 -0.5119522484128803 -0.1401161375153302  0 0.4628593543202276 0.8855632312882982  0.3015827308425723 0.3699196515636318 0.916118113296736  0.2831250486531117 0.5320147666868361 0.8321945108773773  0.3825795555914422 -0.6690296309761865 -0.2952055242879837  0.4043090205097222 0.4000926521875504 0.2655017005394236  0.5978414449389082 0.3237928842626442 0.3209363851519929  0.2645148779899891 -0.338943586656435 0.3561994752880429  0.4219521826235639 -0.4004970037301178 0.2625370852546315  0.2094134450411068 -0.427547835839946 0.2479337980438358  0.1857857161792982 0.4082826524643675 -0.7114865320202091  0.4350093809141001 -0.08779074384838936 -0.7057378089671015  0.621
[...]
<PointData  Vectors="state-0"> 
<DataArray  type="Float64"  Name="state-0"  NumberOfComponents="3" format="ascii">1.5014823917376785e-01 3.2953998767391815e-02 3.5845214805695386e-02  1.1451291638703293e-01 5.6205943806694600e-03 4.6126746793061599e-02  2.1583375897426479e-02 -1.7104662510433324e-01 -9.5406166731191525e-03  1.3037372241046272e-01 1.0590301450125664e-02 4.1836859567332928e-02  2.9902722370221270e-02 -1.2653003769904225e-01 -1.2951424217841623e-02  1.4653202884942464e-02 -7.1010350027451360e-02 9.3276282285503193e-02  3.5864587073355329e-04 -2.6368716912438611e-02 1.1712847582591591e-01  9.4911028052993411e-04 -1.1607878606557084e-02 1.0608799545037226e-01  8.2108049356764273e-02 -3.0316026691308978e-02 1.6407708065636559e-01  1.0840320022407854e-01 3.9649751289978205e-02 5.0065959861930069e-02  6.8471126309142136e-02 -6.5902817961170312e-02 1.6980172977297853e-01  8.3544809085976390e-02 -9.4632511821421197e-02 1.4177762447271972e-01  2.1913362935548974e-02 -1.1410827105897504e-01 -8.3980342357855300e-02  1.3177012401513027e-01 9.9979073326665418e-04 5.0966526403026853e-02  2.6015893449623052e-02 -7.9818103797765230e-02 -1.1021919919485156e-01  3.4434293870449079e-02 -9.7169779216018992e-02 -5.9568643870939214e-02  0.0000000000000000e+00 -1.6743072784335591e-01 -1.0249437333710430e-01  0.0000000000000000e+00 -1.2732073857213061e-01 -7.2349150256614175e-02  0.0000000000000000e+00 -8.6911810445945439e-02 -1.0596126364640431e-01  1.6291947263064391e-02 -1.1216294897406603e-01 -9.8823238401245656e-02  0.0000000000000000e+00 -9.7434957603967615e-02 9.2285316093719705e-02  1.3255084366878712e-02 2.0319495483935492e-02 9.4128718949387319e-02  1.1261096547167481e-02 -1.5624991838315641e-01 7.5264142201875953e-02  1.8002931773516345e-02 4.2816866312350856e-02 9.2873717692697325e-02  1.5849013225512665e-01 -3.5743501360070484e-02 3.6253336616189984e-03  1.0430963324750006e-01 4.5166328334421191e-02 -8.7915781405964386e-03  1.6485492813896940e-01 8.4038587866521380e-02 5.1632713261442399e-02  1.5066378675034767e-01 2.5481017004581424e-02 1.0345875219940652e-01  8.8618861279398567e-02 -6.3820286315083768e-02 -4.7146570785729924e-02  1.2545748092958608e-01 -4.6882408688083278e-02 1.7812653503417940e-02  1.2346530291129050e-01 -4.7688936067322128e-02 -1.9723015556949136e-02  8.9540910712292851e-02 -7.7950008202855692e-02 -1.5234706198713766e-01  1.1453229488132061e-01 7.5346922903463589e-03 4.0095435591979860e-02  1.7632589333518808e-01 -1.7500511066038563e-02 5.1635591847615452e-02  2.1582949190355866e-01 -5.9677259565521681e-02 -4.5294869456846763e-02  1.9311282710836727e-01 -6.1404338590138524e-02 5.4021085484965876e-03  7.4866524856435107e-02 6.1616535956747646e-02 6.5279829613734644e-02  8.8435519368054757e-02 7.8466191417528572e-02 1.5649425389086596e-01  5.9862387553795054e-02 1.0392952295495994e-01 1.5192987647540732e-01  1.2625620311661204e-01 5.1120296145133970e-02 -1.1326349702873384e-02  6.4645420123241301e-02 -8.0038571453515867e-02 -5.3491104784299630e-02  7.7781244434714611e-02 -8.3864078027312730e-02 1.4240265225936764e-02  2.4938460094975360e-02 -5.1935830415421234e-02 -1.8927276541007218e-02  6.9850154206586162e-02 7.9451910730557657e-02 -5.5308962873812199e-02  1.1277991268446029e-01 3.6852478141033644e-02 -4.9434406194248590e-02  5.9197174258324908e-02 1.6322778376989630e-01 -9.9391865698985893e-02  7.3605856618127005e-02 4.8159807990350939e-02 -8.2290388565506689e-02  0.0000000000000000e+00 6.6011970111972670e-02 -1.7635486352242727e-01  1.6258362054576331e-02 8.4423510932226276e-02 -1.2885314407222734e-01  1.3452902138403156e-02 1.3038124295527714e-01 -1.1224908037729005e-01  2.1847879044551748e-02 1.0575557854660383e-01 -1.6712778102254167e-01  1.1153993345993657e-01 5.3661251478689755e-02 -2.7966455227251535e-02  1.2324452826232112e-01 3.0451843648952120e-02 -5.4179016654565940e-02  7.3260244074519643e-02 1.7963083527729079e-01 -3.7945707161245429e-02  5.5942279166454285e-02 1.8703548483787477e-01 1.8241763687602715e-02  1.2444466249374000e-01 1.2922228985415925e-02 1.3359313787084626e-01  1.5850234008113251e-01 9.8876448386007836e-03 -1.9394180216702927e-02  4.6425187573895320e-02 -4.1730041024915804e-03 1.3816837685645697e-01  5.2778006346166140e-02 4.8315254054329272e-02 9.0602016166134725e-02  9.4706368291482920e-02 5.1432502556343559e-02 5.6518979605908376e-02  1.7099528030112499e-01 -8.1321404892610825e-03 2.7054352106996561e-02  1.3339194638933372e-01 -2.3960242700819135e-02 -2.4875928483641216e-02  1.3601168340860376e-01 -4.1479506175183853e-02 -1.1869366772191095e-01  1.5008553362562402e-01 -1.0294592339787172e-02 -1.0824026435112763e-03  0.0000000000000000e+00 -1.5659015934356682e-01 -2.1897978008461480e-02  0.0000000000000000e+00 -1.6475615819228454e-01 -1.4563855769110163e-03  4.4241051983729381e-03 -1.1781888023836261e-01 -2.3327903285772927e-02  2.0491074564388180e-02 -6.2507589326137522e-02 -8.3913872005718093e-02  2.5024510730894511e-02 -1.1154800504739457e-01 5.3134744592079786e-02  3.6043225722024792e-02 -7.3998283064357365e-02 8.2624832957613900e-02  7.6998872818473292e-03 -1.6050763626200595e-01 1.0894907168534208e-01  4.4350105622427215e-02 6.6483918694912006e-02 -9.2182196216986451e-02  2.0866241555090349e-02 -1.1459867419818311e-02 -1.0613576263774618e-01  1.7728092785057329e-02 1.5843580383616626e-01 -1.2760396510032165e-01  5.1306226950531636e-02 -8.5948010487593748e-02 5.8174954003429764e-02  2.0278529839360217e-02 -6.8054970887147861e-02 8.2400312326142228e-02  1.1109863389018423e-02 -1.7690078784068575e-01 -2.6046678696907380e-03  3.9178733838886023e-02 -1.5208783352431818e-01 -1.4624350246579643e-01  6.4437106936143948e-02 -8.6346452317137529e-02 2.7161506802272906e-02  7.8953615308647918e-02 -7.6669352300714880e-02 2.4882355005947262e-02  5.0473127231598802e-02 -1.9106175120067942e-01 -6.4949017891176658e-02  1.8980110601859345e-02 -1.0397586790434674e-01 -7.4279841851254908e-03  1.3390586074149551e-02 -1.4291381442370896e-01 2.2217598411012944e-02  1.2574029597936742e-01 2.9540804236105313e-02 4.5658696288960673e-02  8.9095454517257436e-02 -6.9287309750804035e-02 -3.4041680743773964e-02  4.4005197848237920e-02 -3.8731418919427260e-02 -1.0310490733208823e-01  1.8697222197880083e-02 -6.0156002263704551e-02 -3.1085037361968808e-02  2.1041565158441290e-02 1.6130769901395539e-01 -9.3366304809247347e-02  1.0416802918227794e-01 1.6178170854101939e-01 -1.2356825926193365e-02  1.3240010370014121e-01 1.9248095800938454e-02 3.7030354498391316e-02  6.2778374234916653e-02 1.1676084138727745e-01 -9.3499892407576446e-02  1.1572428375677295e-01 5.2088260677035467e-02 2.9220840051405118e-02  1.1783357124289540e-01 4.1450294518876746e-02 2.2960115731796505e-02  1.0535709762498600e-01 1.5626791007646100e-03 1.5317536938830029e-01  1.8204477120031298e-02 -6.0984255448934986e-03 5.3313570546504062e-02  1.8621074206119494e-02 -3.6822881507409963e-02 6.0652789450949644e-02  8.9759704280360966e-02 2.2517845133353816e-02 7.3502281348098664e-02  0.0000000000000000e+00 5.1397771653008427e-02 -1.3054709397381087e-01  1.3855575243433801e-01 8.5540785436996787e-03 5.9110346256719621e-03  8.5226070282656496e-02 -8.4166624505000193e-03 -1.0575156210648941e-01  4.1918681279333778e-02 3.7847752032419864e-02 -6.1322289817399941e-02  1.9757398263087218e-02 3.6952654682531491e-02 -6.1986990643984018e-02  1.2092225893663726e-01 -1.0955601600651016e-03 6.5378425231587059e-02  3.3169285018817309e-02 -9.0834371571485967e-02 -1.6616878072364689e-02  1.9901064033845929e-02 -6.3451072521145555e-02 9.8567823566616114e-03  3.6582919050555343e-02 -6.4016188003738636e-02 -3.1080340413336783e-02  1.0828037461594445e-01 -5.0410390440405566e-03 6.6730578153374603e-02  1.6380229945771346e-02 -6.7372470987833791e-02 3.0921015630885902e-02  1.0473471261747160e-01 -4.0319358660307874e-03 6.7116001352481539e-02  1.1906436760320391e-02 -7.2448489292524482e-02 4.1000026912894123e-02  7.3282342665234616e-03 -1.0369603189647898e-01 3.3687054882377651e-02  -7.3072723209213963e-03 -4.6838573400250709e-02 -8.9497647729605168e-02  -3.0985101190412587e-03 -4.0956595679277015e-02 -7.3686452511183442e-02  7.9152646068838997e-02 -6.8716786225060680e-02 6.0323645993595999e-02  1.1611429289251787e-02 1.7252085698474817e-01 7.8844738103924311e-02  2.3057697081768115e-02 1.1847011021446979e-01 2.3034819481332725e-02  1.5389860053793796e-02 1.0127951144440618e-01 1.1689135608067372e-01  2.5961236787883271e-02 1.8609016815134885e-01 6.7271872853721618e-02  0.0000000000000000e+00 1.3501887261796083e-01 -2.2261603408827057e-02  0.0000000000000000e+00 -1.1656774417571987e-01 -1.2244459289181557e-01  0.0000000000000000e+00 -8.9963373012815789e-02 -1.4708461045772264e-01  1.8260741297954158e-02 3.6522832538796471e-02 -9.0637978814908038e-02  -1.1674662002477993e-03 5.0269996937416080e-02 9.9049455662285665e-02  1.6881824233109099e-03 1.4493536441768389e-02 9.0486807768413849e-02  5.4486643767506809e-02 -3.9519800746289573e-02 8.8568389710117199e-02  0.0000000000000000e+00 -2.0750843526838758e-02 1.4027328420717941e-01  0.0000000000000000e+00 1.3741042358379058e-01 -8.2357043824314510e-02  1.6995636135211937e-02 8.1330628438501570e-02 5.9007701604149275e-02  2.4967468881269467e-02 3.1353591792636540e-02 1.1244082394825314e-01  3.6294160458932176e-02 6.7529051180906963e-02 7.9270644883827318e-02  2.5579639193189338e-04 9.9788253107832597e-02 -5.2689943860686178e-02  1.2584845928356157e-02 1.0115630867540047e-01 2.4411203653818672e-02  5.8137107655131751e-03 7.9882991589074623e-02 -2.0674346232321460e-02  1.6194669147468621e-01 3.0430936521834300e-02 3.1491656090645401e-02  1.3005221631499117e-01 1.9811080028374523e-02 5.0162463496695783e-03  1.6586651517942264e-01 -1.6254171597494102e-03 8.7496930524458300e-03  1.4533936701521322e-01 9.9796112210776708e-02 -2.5092866018909411e-02  1.1540973021196603e-01 -6.8921863689349980e-02 1.3123783545093459e-01  4.2660475252836755e-02 1.4669738075326713e-02 1.0801131523210071e-01  2.5989760228522108e-02 4.0416182007499040e-03 2.0104173111055609e-01  1.2760965400955832e-02 1.6849618204439873e-01 1.2870517881295764e-02  3.1723214707849362e-02 1.0909470493930938e-01 -2.6032201170257233e-02  1.2545713087123178e-02 1.8994989787301989e-01 1.0808223629187234e-02  1.9492687201015241e-02 1.8931441564229118e-01 -4.9307026173513645e-02  4.3567786133405832e-02 -2.0112363368672653e-01 4.0873924474640527e-02  6.3168467882129042e-02 -1.9251296940887583e-01 -1.5399815923928979e-02  8.0661309275187068e-02 -1.7904074354157901e-01 4.1166997643104046e-02  4.2915888108928241e-02 1.1586914436094455e-01 7.2787356802588757e-02  9.3471617771508822e-02 6.7105870505424367e-02 -2.2951389851991997e-02  1.0003059001810963e-01 7.2991508673558927e-02 -1.7624656771705438e-02  5.2262446687142604e-02 1.6279577459022104e-01 9.8585034541122565e-02  7.1636685003422960e-03 -7.4439119740362047e-02 2.5241194957244823e-02  1.0810868153428347e-03 -6.2425416556893348e-02 5.0147600518866617e-02  9.6578543052560847e-03 -6.1326484358299342e-02 1.7216613766983635e-02  3.9917109685987870e-02 -1.1119795100837075e-01 -3.4548402005137840e-02  2.3786323512346410e-02 1.0654554802595299e-01 4.4379861767808735e-03  1.5575906744411908e-01 -5.5131319368555837e-03 -1.1737686422211400e-02  1.3163420422428621e-01 1.3021903428267659e-02 -2.8260682683356089e-02  3.0480183844005606e-02 -1.6150630838985807e-02 -8.0981315562111425e-02  1.1489179214226049e-01 -3.9431323810360658e-02 1.2328373996956106e-02  0.0000000000000000e+00 1.5161250722033429e-01 -2.9236275204979827e-02  5.9931706458877399e-05 8.9108681841931547e-02 3.2274750920504199e-02  -3.5356585493416903e-03 1.0006617364856502e-01 6.5743474379948170e-03  4.1795153634326503e-02 -8.9952550970205478e-02 -6.8809339140377235e-02  2.3606476014324976e-02 7.3313376891331883e-02 1.8405344068096563e-01  4.4771909598777887e-02 2.7805217035198840e-02 1.9059493309331962e-01  9.8366475836855396e-03 -1.9722918600538322e-01 4.7013732491557395e-02  2.5623167656503243e-02 -2.0945235047095187e-01 -1.8104952399654727e-03  8.6842739249131506e-03 -1.9509066021405785e-01 -4.0944901834223486e-03  2.3046838297157615e-02 4.7448394220030408e-03 -9.7895748983237288e-02  4.8852748801532515e-02 3.1832808049529614e-02 -1.1312319696659356e-01  8.1374280998908310e-02 -5.8000387986024859e-02 -1.6380610603988589e-02  9.6793249920091792e-02 5.7423759666561805e-03 -8.6836767659925818e-02  4.7900548521057081e-02 7.6505186214497853e-02 -1.8437869014523911e-01  1.2862876343184193e-01 2.7551212909796136e-02 -2.1515584749787507e-02  2.3406635777340704e-02 8.1613872934554868e-02 1.0795296265936767e-01  2.9277990413363250e-02 -5.8862479905066767e-02 -1.3839472045829269e-03  3.3028899322173046e-02 -5.8273687593266156e-02 -2.8795994102292232e-02  2.3524943329811771e-02 -6.1187973890450546e-02 6.3672629543837051e-03  1.1138480561272006e-01 -4.6624657407944983e-02 5.0243986394153048e-02  7.2276287020540730e-02 7.8931684326695423e-02 1.9395933397853313e-02  1.9295927949654245e-02 -9.8096532522558275e-02 -4.9236120740061437e-02  3.7971479038677108e-04 -1.1453538258351183e-01 1.5221213182933496e-02  -1.5484659222178882e-03 -9.8453122577971369e-02 -9.2219107238203629e-03  6.1119648852813969e-03 -8.0017725094775866e-02 2.4010968325012976e-03  2.6577539547263287e-02 -9.1068406906049826e-03 9.4843245053509773e-02  6.0414739598817699e-03 9.2782330576804059e-04 1.3402451898177625e-01  4.3559063461687121e-02 9.2213567487849965e-02 -6.4902353893171644e-02  9.5469935181378085e-02 7.2028399430414780e-02 4.5696710370401444e-03  8.5821311667546085e-02 1.5597090902857599e-01 7.1712047231766371e-02  2.0262016418698268e-02 -1.8982528472515525e-01 -7.9826180103760747e-02  4.0695495588807098e-02 1.9502351379533489e-01 -1.6177111554479914e-02  9.6339145537229359e-03 -1.5130012118488806e-01 -3.5218027071281736e-02  0.0000000000000000e+00 6.9996211733347824e-03 -1.9457670651675013e-01  0.0000000000000000e+00 2.3656072349710938e-03 -1.4214216951669012e-01  2.1013648313880914e-02 -2.4535292202157021e-02 -1.1018178752283728e-01  1.1908014027789156e-02 -1.9393585034450551e-02 -2.0205200401052711e-01  1.7832087605678594e-02 -1.1091152314864101e-01 1.2006170586296879e-02  0.0000000000000000e+00 1.6916418779841683e-01 -9.4640429892635908e-02  0.0000000000000000e+00 -8.6061846942429382e-02 1.5290902197160078e-01  -1.4376033959236445e-03 -8.7138334447783003e-02 5.2143943838606398e-02  -8.0728541427200363e-03 -6.9748251347474199e-02 9.2629938481575094e-02  5.4775513172496619e-02 1.0022172263808225e-01 2.2881222331319721e-03  2.7994938262189462e-02 1.4938762557375587e-01 3.9361487153207829e-02  8.8288177936312034e-03 1.0349375445086054e-02 -7.3747830368014744e-02  8.2214843463803925e-03 7.9304238637609770e-02 1.7239355676526535e-01  1.0331331807230927e-02 3.1280937593502825e-02 1.6818952268904760e-01  1.9792213743806426e-02 3.7213698430846234e-03 -5.9954984657082114e-02  2.2479946850188465e-02 3.5179671371235011e-02 -4.7423711773830375e-02  9.6022428707326093e-02 3.6331886931629177e-02 -7.8316535905313261e-02  2.0619440649539394e-02 9.4815033389391169e-03 -5.3841635563308683e-02  0.0000000000000000e+00 8.7931263843085125e-02 -1.0231275800406792e-01  1.7530532794497792e-02 8.6499164142546964e-02 4.6361951288370409e-02  5.3670544674897947e-03 -3.5588441878252004e-02 7.7347231351763676e-02  1.1667684454201519e-02 -4.3524199290831546e-02 4.6570351496305576e-02  7.5644434873852195e-02 -5.4206184570638881e-02 5.9293059869323039e-02  2.3139030970834109e-02 -5.2567638371335011e-02 -2.1895126734703507e-02  2.2092085169344574e-02 -5.3994749413948384e-02 4.2983581318937775e-03  9.3781953434852114e-02 -7.0483480627553483e-02 2.5644751133286430e-03  7.4755077697961983e-02 2.6883916741392570e-02 8.0997277078774216e-02  3.3521556763468185e-02 -1.1564110388848976e-01 1.6525379983111010e-01  6.6097195598148778e-02 -2.2065253161737918e-02 9.5580233614078705e-02  5.9916611166337806e-02 -5.8561413453283771e-02 7.9408501860560546e-02  5.1002893489553953e-02 -1.2145168219583816e-01 1.5245595599987463e-01  5.8693176313049751e-03 1.1784000223119383e-02 6.1035428713447956e-02  -6.0266462642881945e-04 -4.3887360195631803e-02 1.0099224131497876e-01  8.2343986684293331e-03 -3.4962621387245166e-02 7.3135860073741579e-02  1.2147151831984357e-01 4.7678233714041569e-02 -4.7576665713419761e-03  9.4333153714313986e-02 -8.1598952038680721e-03 7.1303764230552694e-02  1.0952685327412801e-01 -2.3072095724675404e-02 -1.2963181388097775e-01  8.2583353557708766e-02 -5.9249427014664742e-03 -4.0146334891536578e-03  1.1394499802700206e-01 -2.6995722728808933e-02 -1.4362299955574415e-01  2.6381986631645777e-02 -3.9516758976826660e-02 6.7019642461791248e-02  1.4600820107139211e-02 -6.8392859811934908e-02 6.3065561144099141e-02  5.9515216684207055e-02 1.1995541732022405e-01 -1.3168652333873343e-02  1.8788833949450387e-01 2.3015595380402962e-02 5.4449456943974475e-02  2.2621991597309134e-02 1.0434515306184960e-01 -1.5670229401115850e-02  1.5147657535268694e-02 1.1411915975720792e-01 -3.4463723582259076e-02  1.4567369686288914e-01 -6.9316083313950413e-03 -9.3006295536299053e-03  1.7545356123852535e-01 3.5386026763097760e-02 3.6502429036965628e-02  -2.9240797480442584e-02 -8.4453141897168280e-03 -1.6403049180397375e-01  7.5720483400164313e-03 -3.3608249197902236e-02 -1.5629133059962741e-01  1.4795463243608024e-02 -2.8805122401015463e-03 -1.2681244119390869e-01  -8.3572333018205706e-03 -2.1059403235482770e-02 1.6745464150360412e-01  1.1491205976203794e-01 8.5526457011000576e-03 5.8181425561700181e-03  1.0441530445375711e-04 4.1020177848041316e-02 1.8046783839695787e-01  1.2826634067708467e-01 1.0554009385406541e-02 1.9463935405938142e-02  0.0000000000000000e+00 1.2125165338879913e-01 -6.2543220746767977e-02  0.0000000000000000e+00 -1.3111641514950387e-01 -7.9921083173979710e-02  0.0000000000000000e+00 -1.2677764524252522e-01 -1.1180979363461510e-01  3.4263779221699542e-02 -4.9098592555082185e-02 1.9456516391295925e-01  4.7665374782903176e-02 -5.8332841248999304e-02 1.8631509912695327e-01  9.1179556858074721e-03 1.0268717276843326e-02 -1.1818377952037722e-01  0.0000000000000000e+00 -1.5043358795836745e-02 -1.6777379635963161e-01  5.1784540866536381e-03 3.6704308380071479e-02 -9.3346010483214753e-02  3.6537303950365536e-02 -3.8398135504149000e-02 1.0614985643971175e-01  1.0918510609511392e-02 3.9177076527920927e-02 5.3630219738757402e-02  1.1142673569676202e-01 8.1084789793850434e-02 -1.0536341599508696e-01  1.6056398641744513e-01 -1.2381850491408643e-02 3.8609956460627566e-03  1.3153675087388569e-01 7.2645695241632460e-02 -8.3750858906374515e-02  3.0023369417571232e-02 5.8876968759399247e-02 2.1426299500707974e-02  1.3606405115983893e-02 5.9631479932161668e-02 -1.4292995004214463e-02  3.2362840258192360e-02 4.2897077187363852e-02 -1.8776805561499632e-02  0.0000000000000000e+00 -1.3218848834687572e-01 5.5048895232053287e-02  2.1446335072099424e-02 -3.6790741390880712e-02 -9.7297813540793560e-02  1.8587405481228097e-02 1.8912154822856356e-02 7.6860733696139424e-02  1.5516991273205579e-02 4.3631658361197277e-02 5.7579357305366188e-02  2.2836971218905683e-02 4.5204800517694273e-02 6.3382287224302433e-02  1.3234571675019599e-01 4.0331996602940373e-02 -2.5801135869952068e-02  1.0082692967035047e-02 8.2668869954484164e-02 -8.2828330619784521e-02  3.7157541309044465e-03 1.3884956948108756e-01 -9.0412692531227662e-02  1.4552013090850510e-01 -1.2362673881409898e-02 8.6823931181010915e-03  1.0122925808312859e-01 -6.7151752494774175e-02 1.4259487814239009e-02  1.1219661073462826e-01 -1.0715233262486398e-01 -1.0208534805006948e-01  8.8837438346965877e-02 -1.3649086996378820e-01 -1.0893834380277215e-01  1.7458893151456729e-02 5.4939016795196943e-02 9.8733842610124078e-02  2.7714800218263783e-02 6.3997313883072657e-02 7.0574336022820094e-02  1.1348374302081942e-02 -5.1972552123235566e-02 1.5817245519996709e-01  4.5604502614888562e-02 8.6236426322284648e-02 4.8215175119618994e-02  3.5386385425470304e-02 1.4409697285751080e-01 1.3765875655420115e-01  1.