<?xml version="1.0"?>
<VTKFile type="UnstructuredGrid"  version="0.1"  >
<UnstructuredGrid>
<Piece  NumberOfPoints="562" NumberOfCells="2167">
<Points>
<DataArray  type="Float64"  NumberOfComponents="3"  format="ascii">1.368988780486386 -0.3330614804626422 0.3812091262482924  1.457971735921389 -0.1022985678317614 0.3848351862271924  1.610427907917255 -0.2543337204802068 0.5283220094529932  1.517018421924314 -0.2975870322441377 0.2373535790744415  0.2896649584838891 -0.6565336317944969 0.3023309575633568  0.1476062501325057 -0.7596307241376263 0.3283146094026839  0.2103887490757956 -0.916837934661527 0.3815037813901131  0.2689768990101102 -0.8331508488021908 0.5326326663736717  0.9156822098122387 0.1728678968738864 0.3547279359267569  0.9955038627747099 0.1533306194452782 0.6087026577562188  0.7890673547573852 0.1092600253823605 0.4080960165386402  0.9145731457487908 0.02582743292350364 0.3935106194697764  1.555529446910997 -0.5403673213763167 0.3112575692626874  1.348103006996482 -0.462351674863219 0.1749673809371412  1.400987129938871 -0.69735066861689 0.1355899121124687  1.379596868832529 -0.6110590497219095 0.3769781373204191  0 -0.4990262892337586 -0.03118914320056031  0 -0.7290746446371459 0.09885523113658878  0 -0.717672921293292 -0.1906601281732726  0.1968984162950436 -0.7040029471989069 -0.07369861360184334  0 -0.04626762634821223 0.7372759069896635  0.1747349115361219 -0.1710428392996126 0.8075209349320995  0.1736439618246974 -0.1962945897661325 0.6287261280994423  0.1554956487469918 0.01915161770726388 0.8205218561784148  1.468118261285947 0.4388895086210086 0.1612631929613552  1.314649208445651 0.4683262063503433 0.04261620133015324  1.344984587319364 0.2109573947886681 -0.02958325590058262  1.313873754896346 0.1816089619152257 0.1471166805105471  0.8054134969450556 -0.533449770498696 -0.3926139635083312  1.023959850515393 -0.6045695018332022 -0.2205179401063885  1.05215698719499 -0.4565551953633328 -0.3958586963103667  0.8906623628738856 -0.3599786025326254 -0.1746980748537972  1.697689701537584 -0.1214082871572868 0.1246812640999428  1.488464593112258 -0.01630978270888243 0.02506236650239546  1.430421324362075 -0.1422530463333789 0.0006438225420573964  1.443375672974065 -0.09622504486493764 0.09622504486493764  0.7321510998862281 0.5624492232270197 0.3646846381716035  0.9239002426432321 0.3480246702761787 0.1811782883685  0.7490852309803118 0.4095827285081708 0.1339143819021366  0.9285858048943815 0.6335571890886311 0.2734941480292951  0.5604589232358378 -0.5698201261526246 -0.445758982164192  0.6089524280343109 -0.7218043571025563 -0.2041610728153083  0.6992001125134369 -0.7541456942161303 -0.5502812588103354  0.6274724868209266 0.4419785778654846 -0.5250198354585243  0.8756473641379455 0.3468289673768704 -0.5629197215258924  0.67802877664681 0.1808686458692327 -0.4046923641025996  0.5747192133026287 0.2418214339106003 -0.6661394725993455  0 -0.05589422902377143 -0.4966102514551253  0.2056253598613783 -0.1053038618535594 -0.6787933827793691  0.1556038154442484 0.06282062757538044 -0.6543309982444776  0.2724660772724383 0.01271359915602951 -0.4910330623919412  0.9865780311818615 0.5347283976096202 -0.3161606543928742  0.8204442367782485 0.5439521650280197 -0.46835255331516  0.8298883357700151 0.2747691377838339 -0.3083728461704535  0.6862435664967209 0.3812464258315117 -0.228747855498907  1.177314513331318 0.2155896063490769 0.2140622858922932  1.267656842582551 0.5005914574877968 0.2726043363799996  0.5728594645233351 0.3135209056411565 0.5449126792957779  0.5106867385450642 0.5036153923917321 0.4965240972019211  0.7698782860739618 0.3545773464498151 0.5878168661371025  1.257062485956698 -0.4638359972454 -0.342956295722521  1.188194666541641 -0.2467563208328611 -0.4932880249876783  1.208812547869822 -0.2451038235802088 -0.1523648506518715  1.405543018003129 -0.3155823461555193 -0.3144549970062264  0 -0.1321637113190494 -0.9912279018522304  0 -0.3021402933326705 -0.9528694918273042  0.2240193167333228 -0.2163747517189394 -0.968604487305365  0.1588608620926228 -0.2417277328284706 -0.7863213987186402  0.234290723282165 -0.4158101367292431 0.6068160964348613  0.336171426774712 -0.1961275532959101 0.7074104293225126  0.2157572393158068 -0.1977293037481581 0.4531390059122784  0.3402759051114709 0.1630546516396377 -0.7060477597699854  0.1632882031789302 0.196780254177258 -0.7862562160633888  0.231029003331308 0.1880338449615072 -0.4559977997563014  0.4728863797400071 -0.4933154510626057 0.5304985100819815  0.187854599331762 -0.6281900592232541 0.4987253373128265  0.1504625078742185 -0.4631455710889698 0.4631699097377626  0.5053019851007623 -0.4639188236666469 -0.07333804255252858  0.5526823878021767 -0.6967835074188571 0.215903246388164  0.6541336653852354 -0.7283429953560903 0.01682686734495902  0.6106765895285129 -0.435572044232048 0.1342135044502026  1.287900750276439 -0.4687881345125656 0.5967914885117886  1.473254424964647 -0.2014289120459823 0.6388974134251688  1.252201609832917 -0.1994817872140489 0.4924873900544187  0.6933873765617349 -0.4558378836670255 -0.5791550267835122  0.4866071064794875 -0.3834461891956515 -0.6005511129213282  0.6019697230687768 -0.6242818145703938 -0.7168889634012832  1.902820210771035 -0.06211515387208391 -0.2891430129447606  1.990339083299429 0.001064238785733084 -0.07652382797423923  1.724478368935762 -0.003788849933621816 -0.09935623650575776  1.954875178599839 -0.1249628659413422 -0.1581861500923273  0.9809979007020542 0.3576737082789349 0.535667969994543  1.241639713161487 0.2329691467692865 0.4709274800730408  1.03542332926206 0.2261833785676189 0.277619257236822  0.844968024044826 0.2915591042812161 0.85479271387891  0.9643254804467414 0.1075471943400586 0.8675308624173648  0.7528609021968682 0.08903098632416863 0.6868333670574929  0 -0.2092988896484911 -0.7083966808149078  1.404920008928814 0.3372989555460403 0.316767914436192  1.004219460199691 -0.2737979137568052 -0.4388250598374921  1.180873089276474 -0.4621305164745083 -0.6560168552866585  1.053305258761655 -0.3284868324358208 -0.7801286865200052  0.9712979390145692 -0.5110446369696806 0.4327235545709323  1.146293004560022 -0.6668284527145589 0.469882080380535  0.8963334118470608 -0.7310840957918627 0.5111265403121084  1.08206659020357 -0.7596894074461439 0.3528958016823166  0.8015085840467554 -0.3389768733860401 0.6685991538206634  0.925104953366791 -0.4648901631989753 0.7519021955945258  0.9984935472219151 -0.3065996581170283 0.5499211474208088  1.002288197777214 -0.2792071613298824 0.8153893475416765  1.215846416214816 -0.2524645935340363 0.7497327115816464  0.3024217308764339 0.4448958319181652 -0.8808605755070491  0.390139049844082 0.2930948946191007 -0.9351790364388617  0.7478274009820868 -0.4286314222864522 0.5038265581755443  0.2148561413125 0.491329266113953 -0.05528733303340339  0.2309383938052318 0.714092978138881 -0.2036113182046372  0.1975535218752708 0.6794042289099913 0.05518288617085648  0.3761572698058325 0.4709053903224183 -0.110071861452686  0 0.5090940372412278 -0.5349460340386839  0 0.5350603504932784 -0.8430433168771743  0 0.6738578937333988 -0.737915259701458  0.164109593248377 0.5761575785324918 -0.5890928788615022  0.2475029747273103 -0.4561046932550408 0.8800394901604827  0.3694925429576245 -0.5958501646405832 0.7791131291684588  0.4406799393760092 -0.3650559370457628 0.6810505410128649  0 0.4382264083498228 0.5937380410910144  0 0.7379152597014565 0.6738578937334002  0.1559289910125653 0.445628518864029 0.6984925326213108  0.2324810536730123 0.5213808955010337 0.5258435644279391  0.3555983309770547 0.656027019032849 0.3461651671211329  0.2458237569105728 0.8801511092168622 0.4561636277282752  0.1607954010233367 0.6785216544507058 0.4667873694261923  0.3826204414382912 0.7779301383454942 0.5949541429760784  1.52119605566691 0.1993844535737337 -0.3296462252473032  1.414311204796628 0.3898129177969151 -0.2057175795712648  1.35043553368913 0.31412477587753 -0.3988690910712985  1.281185985486842 0.1662780899176228 -0.1943758563769023  1.099075518775129 0.05947806630170303 0.3306302206363526  0.3679939443262019 0.3447617450768622 0.6523888179221276  0.4109508094888962 0.2773549013757027 0.3912230928899285  0.1373126243972625 0.5009352089527304 -0.4461785342859961  0.2664596187693265 0.6010832976391717 -0.4365657049749609  0.2179946197840175 0.4409807484602174 -0.2220003033063632  0.2617145123926756 0.3390154592910617 -0.3562749789872797  0.5824068775984312 -0.3170408450840759 0.3306350426033773  0.7199893230774794 -0.3705530655917506 0.2326552719422485  0.8358295522502738 -0.2669244509736641 0.3143056243869983  0.5587150980897445 0.6294294572528504 -0.01623015267248071  0.753690685110203 0.6532057608559532 -0.2369277096202369  0.7001301874755437 0.7550693058622343 -0.0524082716182921  0.6800782824703502 0.4417054734682031 -0.04452076045795449  0.4884308328800496 -0.9272425338669441 -0.2789182923255702  0.3906764030666174 -0.9712790424584049 -0.1262145572896986  0.6009334315497298 -0.9480231963115218 -0.09890104373476166  0.420071318585673 -0.7193185330298141 -0.02275610742170561  1.385707654592962 0.3976065221960926 -0.5961074699430042  1.219420193990472 0.4625196146528674 -0.3667717582939762  1.149364473949646 0.3130412125134983 -0.4806343490178561  1.195708172099174 -0.7474690340482983 -0.2799311705246049  1.219932523946796 -0.5119522484128803 -0.1401161375153302  0 0.4628593543202276 0.8855632312882982  0.3015827308425723 0.3699196515636318 0.916118113296736  0.2831250486531117 0.5320147666868361 0.8321945108773773  0.3825795555914422 -0.6690296309761865 -0.2952055242879837  0.4043090205097222 0.4000926521875504 0.2655017005394236  0.5978414449389082 0.3237928842626442 0.3209363851519929  0.2645148779899891 -0.338943586656435 0.3561994752880429  0.4219521826235639 -0.4004970037301178 0.2625370852546315  0.2094134450411068 -0.427547835839946 0.2479337980438358  0.1857857161792982 0.4082826524643675 -0.7114865320202091  0.4350093809141001 -0.08779074384838936 -0.7057378089671015  0.621
[...]
<PointData  Vectors="state-0"> 
<DataArray  type="Float64"  Name="state-0"  NumberOfComponents="3" format="ascii">8.2717255372265028e-02 2.7975675602818856e-02 6.6826155953684879e-02  6.9533301144414555e-02 3.4130326557664497e-03 6.3453720186702936e-02  3.4149283920460786e-02 -7.4006644013968975e-02 2.4816331078771015e-02  7.9260721885846458e-02 -1.1725277730808623e-02 5.9474157112701057e-02  2.0694456032234354e-02 -1.3104300798040239e-01 -3.6338555805118682e-02  1.0055765406338991e-02 -9.9982560404023826e-02 3.8216216424676937e-02  7.2640963830917895e-03 -5.8123067750236505e-02 5.6889781215626663e-02  7.2244304174955412e-03 -4.9150818716023240e-02 6.0445134727184380e-02  7.6399424387551582e-02 -4.7130729798702878e-02 1.6679341417764329e-01  6.3512649849084085e-02 3.6345536621147735e-02 6.7814792524630782e-02  6.4046387665104870e-02 -8.1979942891842489e-02 1.6812783055901118e-01  7.8935022195926935e-02 -1.0983216130273066e-01 1.3693719845380944e-01  3.3252180647573647e-02 -6.2219547475420113e-02 -1.2324223649484843e-02  7.4092467147743257e-02 -1.9995935637421240e-02 5.9632122394684066e-02  3.9385193260075585e-02 -5.8179184030728782e-02 -2.7758529935385801e-02  3.8593073233859104e-02 -5.2477440380994521e-02 9.4168585456810903e-04  0.0000000000000000e+00 -1.6506700673634028e-01 -1.1038712564139516e-01  0.0000000000000000e+00 -1.2518235274080208e-01 -9.8193256698219780e-02  0.0000000000000000e+00 -7.6383639065639677e-02 -1.3097143239095693e-01  1.1529093737394169e-02 -1.0684393757820818e-01 -1.1797617970686482e-01  0.0000000000000000e+00 -1.2129445111197201e-01 9.0816459113852138e-02  9.7424983927447400e-03 -3.6714769993021770e-02 8.8433876488353769e-02  7.9191879741718745e-03 -1.6611830567989197e-01 7.1902090800517154e-02  1.3631950456006217e-02 -1.5191288376140689e-02 9.8337995680254031e-02  9.5088984120659872e-02 1.3512379273336721e-02 -2.1654013754610416e-02  6.9442910074227260e-02 7.5028924133213784e-02 8.5576317156950985e-04  1.6275431044872996e-01 9.8625764179142428e-02 6.9389888032596519e-02  1.5196884411695347e-01 1.9521072326597111e-02 1.1801752220148529e-01  5.6162213711051026e-02 -5.7782015414041737e-02 -6.5155656457757269e-02  7.2574754136653000e-02 -5.9002659510158630e-02 1.0719381232268723e-02  7.6170014318592993e-02 -5.2789026216738290e-02 -3.8653262404475856e-02  8.5978342450943837e-02 -6.2424086842383930e-02 -1.6551736580973939e-01  1.1584381120861986e-01 -1.9013219340758201e-02 4.1256902987885348e-02  2.3265397200931764e-01 -1.6454002474855959e-02 5.2000742879400999e-02  2.3542516803820768e-01 -4.9019438232874073e-02 -6.5426023182979062e-02  2.1424039220070959e-01 -6.4420783267587600e-02 -1.2109326898266791e-03  4.3968609040584083e-02 5.8998676293942842e-02 8.4474008032260017e-02  7.9958873614552450e-02 6.7527714721883028e-02 1.7080286392853833e-01  5.3273687041242759e-02 9.6636046062447481e-02 1.6749939451142654e-01  7.4665993327337171e-02 6.7639585103800179e-02 -2.5369728032395324e-03  3.9368326873639344e-02 -6.3893249985970735e-02 -7.6018011657440904e-02  4.6399394650734005e-02 -7.9317055627763228e-02 -9.0908177394980316e-03  2.5199972225042697e-02 -4.6753735565107264e-02 -2.9185983716140930e-02  4.1903901360873019e-02 9.7472546292938930e-02 -4.3407132285986430e-02  6.8244116876921432e-02 5.0679451421535404e-02 -5.4818174844423813e-02  5.3522315228307152e-02 1.7742621081014059e-01 -8.8302859157405753e-02  4.7585529034753618e-02 7.2006212285181920e-02 -7.6929986290184826e-02  0.0000000000000000e+00 7.5071481148927630e-02 -1.7706318354717379e-01  1.1150601259063451e-02 1.0278311559699418e-01 -1.2848310141917571e-01  9.9901744954905697e-03 1.4397055040390869e-01 -1.0897687685710690e-01  1.8991795549796509e-02 1.1704641892605745e-01 -1.6301152970252245e-01  6.8855436045672902e-02 7.0335222301571493e-02 -3.0931018274591816e-02  7.6153264975636140e-02 4.6070295232662789e-02 -5.8408940820889849e-02  6.7106748189899978e-02 1.9052988479171573e-01 -2.2469231137134910e-02  5.0734758010224146e-02 1.9192932528436379e-01 3.4502393530390148e-02  1.1972892321941395e-01 6.6335665534374339e-04 1.4427658319746300e-01  9.7688037655318069e-02 5.7286348204501673e-02 -2.9036508319600328e-02  3.1820921887187527e-02 -2.0231868626488451e-02 1.4766214885338672e-01  3.1136584282375018e-02 3.4054535365514900e-02 1.0785689502576212e-01  5.7214186549807963e-02 4.3366332146900048e-02 7.3567612388415290e-02  9.9921149931270326e-02 -4.5166910942148628e-02 2.3271743504730043e-02  8.2409752840785069e-02 -2.9681789970004455e-02 -4.8283212521434686e-02  1.3664757818363205e-01 -2.4656487344207095e-02 -1.3504908745422073e-01  9.5611916524837096e-02 -3.4852594320584969e-02 -2.4244094068419850e-02  0.0000000000000000e+00 -6.8738837057829988e-02 -4.8202418787545748e-02  0.0000000000000000e+00 -8.2631761079611801e-02 -4.2969938449561214e-02  9.0463650104254442e-03 -5.3571261989385083e-02 -4.8191994670015094e-02  1.4406804615141303e-02 -5.3995506617712510e-03 -1.0583221409628661e-01  1.8530941698675144e-02 -1.3033744648185969e-01 3.5484312812751932e-02  2.3730324623373003e-02 -9.9081712777724470e-02 7.3718212244340137e-02  6.0593935838488171e-03 -1.6780134175553563e-01 1.0270638862638221e-01  3.0554042256809334e-02 9.3897837502645395e-02 -8.2812624406150268e-02  1.4933227578630720e-02 4.2818530257203259e-02 -9.2019006542843590e-02  1.5380397635289134e-02 1.6861158614117785e-01 -1.2003418400542411e-01  3.3893165168884534e-02 -1.0284637343013536e-01 3.9425965875631297e-02  1.3329319888995154e-02 -1.0349968561371309e-01 4.2564587507181478e-02  8.3959521984196955e-03 -1.8245457673022430e-01 -1.1325895276506367e-02  3.6722271045886642e-02 -1.4266945875485171e-01 -1.5741397963166900e-01  4.0530126294047036e-02 -9.4194930622387416e-02 3.0139411566266899e-03  4.7608738376936494e-02 -8.0630161629989927e-02 4.0234984568353659e-03  4.8529331630388826e-02 -1.8760302497514714e-01 -7.9722229510423376e-02  2.8068833930606805e-02 -5.2960103606076753e-02 2.5651510835783469e-02  3.0069159831413075e-02 -5.4941868241055777e-02 3.8865254300784267e-02  6.9653582535013345e-02 2.3752881614734656e-02 6.7043637165040484e-02  5.3801133892850975e-02 -5.8793820589896004e-02 -5.2403164273864621e-02  2.7687951138814209e-02 -1.5333634501712172e-02 -1.1619615914906495e-01  2.3919550771399147e-02 -4.7766335161988416e-02 -4.8758174158591260e-02  3.5467804240523919e-02 6.0396668449189221e-02 -7.4109536468211668e-02  7.9395382515119184e-02 8.2213731577078036e-02 -3.3616961617299740e-02  1.1914362714391503e-01 3.3027170441696778e-02 -6.4494289917434453e-03  5.0891978967843136e-02 3.1736613184870179e-02 -5.9935315729221776e-02  6.8729338951623226e-02 5.7794344329563270e-02 4.4895985357576912e-02  6.8368921249606168e-02 5.1208182048260463e-02 4.3866593506533311e-02  9.8247815837559260e-02 -1.1439280301521151e-02 1.6262162228721178e-01  2.3057692116074353e-02 8.0641097506661801e-03 5.2333641690371746e-02  2.7001287713740205e-02 -6.4589852292750794e-03 6.1188971326473510e-02  5.4173533578681113e-02 9.4691914169994472e-03 8.3281974136341752e-02  0.0000000000000000e+00 7.7429819434512340e-02 -1.3530280186685439e-01  8.5052565284771842e-02 4.3890323891172978e-02 1.5260988476758533e-02  6.4692655739012908e-02 1.2046351031846418e-02 -1.2110130365929314e-01  3.5559928691280704e-02 -1.0971705398990649e-03 -3.6118630204422783e-02  2.5977004379741472e-02 6.8121266686470032e-03 -4.9409895739529308e-02  6.6916773902282123e-02 -9.5033463239573533e-03 7.4849249049316419e-02  3.6818105795173639e-02 -6.4240593321274880e-02 2.5531542501397143e-02  2.0698042922971224e-02 -5.6844503862975085e-02 2.6457682665018335e-02  3.0705497085134734e-02 -5.0640216921877444e-02 5.0263289853308048e-03  6.3486971439613973e-02 -1.0654605964742946e-02 7.6630967282671547e-02  2.5437276472760669e-02 -4.7805845989680525e-02 4.8847943666429888e-02  5.9807102247262357e-02 -1.6922103474471824e-02 7.2801774966651051e-02  2.3266107579479139e-02 -3.6672943430939846e-02 5.2544326026714626e-02  2.6399229739844775e-02 -4.4663450923163803e-02 4.8644815210816025e-02  9.9901634989029526e-04 6.3957520764181663e-03 -6.9213971246335632e-02  6.9159481098254446e-03 4.8551648788929015e-03 -6.7384708675272645e-02  5.0554687049147402e-02 -8.5581264449052147e-02 5.3290809633120419e-02  9.8493044117925112e-03 1.7275046762500618e-01 9.1190229509086118e-02  1.4714699859778246e-02 1.2365540135124380e-01 5.4237258929941808e-02  1.0634914450953275e-02 1.0009372464901849e-01 1.3339424295514121e-01  2.2048132995680071e-02 1.8601512930347647e-01 8.1410892091462850e-02  0.0000000000000000e+00 1.5727495555361426e-01 -4.4832982137760631e-04  0.0000000000000000e+00 -2.4874134159121125e-02 -8.9587017616858833e-02  0.0000000000000000e+00 -5.9801058636304114e-03 -9.8089788859095514e-02  1.1728027015207032e-02 8.2467399959648885e-02 -5.5512612125665543e-02  3.8883526386684747e-03 -7.3474271220296964e-03 7.8329719261980818e-02  9.0342490366008762e-03 -2.6712975369538209e-02 6.7850575697804630e-02  3.5215410796133405e-02 -6.9780820171528021e-02 7.5263567147858340e-02  0.0000000000000000e+00 -3.7308477314280157e-02 1.5482514103151690e-01  0.0000000000000000e+00 8.6811253618491194e-02 -5.2985767204398833e-03  1.1360977211192133e-02 3.1470819145473887e-02 9.9402817690229073e-02  1.7788621899685289e-02 9.9668002641307950e-03 1.3071998082417188e-01  2.3341813341226848e-02 5.4309486215587045e-02 1.0435692796818924e-01  6.3272431563354921e-03 7.6359160539113471e-02 8.2475973704907064e-03  7.8301061760944618e-03 7.2867339337654949e-02 7.7730915230933798e-02  9.5052251136072703e-03 6.0054336117737805e-02 2.3309363578622844e-02  1.0876327120570735e-01 1.8602094710520243e-02 -1.7713933792779270e-02  8.8849767786866124e-02 4.1825395468079340e-02 -3.3371096686713453e-02  1.0695079603074403e-01 -5.3839404647069997e-03 -3.7305541672606114e-02  1.4114250048052573e-01 1.2635590776297698e-01 -8.4026066646178815e-03  1.0942562097212631e-01 -8.4937706572667207e-02 1.2970637744337615e-01  2.6230596830326192e-02 -9.2009124545667318e-03 1.2032337112437806e-01  2.2136725502059005e-02 -8.4869175045491213e-03 2.0558146043578357e-01  8.1138235787650385e-03 1.7807944632355499e-01 2.4705495344168549e-02  2.2261317195683823e-02 1.2577380628298673e-01 1.3219454303505715e-03  1.0601666688639582e-02 1.9355648192919164e-01 2.3119485265178586e-02  1.6275338769841000e-02 1.9716265302107067e-01 -3.8669470010559877e-02  4.0946635758313879e-02 -2.0507074376056317e-01 2.7036806778503786e-02  6.0450604198224303e-02 -1.9385192783468358e-01 -3.1137217310576830e-02  7.7039980414718337e-02 -1.8519279625474702e-01 2.5717559450607747e-02  2.8290660907077807e-02 1.1775451613831317e-01 9.3938786331242266e-02  5.6579118691424894e-02 8.1326092546318909e-02 -1.2306817371098918e-02  6.3592463220429843e-02 8.5260377878294158e-02 -2.9863649939114948e-03  4.7265193655107729e-02 1.6124994542437113e-01 1.1541361274194835e-01  1.4718659522780288e-02 -7.1240519320484197e-02 -9.6003663030336615e-03  6.3447301794405022e-03 -6.4161425724998083e-02 6.6827449388033042e-03  1.6494097829845011e-02 -6.3358780185981900e-02 -2.0284694822757863e-03  2.6042965425789020e-02 -1.0657346389044815e-01 -6.0771839758294782e-02  4.1618326456390478e-02 4.7674086931767341e-02 -2.7143647087196188e-02  9.6271386646292242e-02 2.9623817734819352e-03 -5.2220807864045413e-02  8.2644046867229218e-02 2.4574321596740990e-02 -4.8978242684218090e-02  3.5217132727513888e-02 -2.9920692353910809e-02 -3.6918056710663005e-02  7.2744718699185723e-02 -5.3244640612729703e-02 -3.1922404882797450e-03  0.0000000000000000e+00 8.2478528878687313e-02 2.6200818349083985e-02  8.1233638781704701e-03 4.4990410996520847e-02 5.9154529682794742e-02  3.8816421977164411e-03 5.5525925563605617e-02 4.1613777630436360e-02  2.7128721952651775e-02 -7.4753406271649586e-02 -9.2849626326321155e-02  2.1496131250632766e-02 6.3615887145856989e-02 1.9278214043067873e-01  4.0388545185790957e-02 1.6012214011388581e-02 1.9783645853510848e-01  8.1655795434926893e-03 -2.0199095549773882e-01 3.7187854100905110e-02  2.4289218443512183e-02 -2.1038086816895829e-01 -1.4257870287902664e-02  7.5188616922050025e-03 -1.9638945672591690e-01 -1.4715252346601614e-02  1.5103369488116435e-02 5.0658699694546838e-02 -7.1581700698962150e-02  3.1726029707792182e-02 5.9003773251605551e-02 -1.1544413365539664e-01  4.5642147026284684e-02 -4.4996694089802412e-02 -2.7230081442166924e-02  6.1096300836299820e-02 1.8255636645271342e-02 -9.7352966782869865e-02  4.4698350620870970e-02 9.3619962649583735e-02 -1.8345724953839715e-01  7.8628118276939260e-02 5.0903112971424067e-02 -3.7566004375602743e-02  4.0714215502118574e-02 5.7356346895472053e-02 2.9140586838987671e-02  2.7071017454628751e-02 -5.3576988407466955e-02 1.9202573101037526e-02  3.0943153280676098e-02 -5.4358631515107496e-02 8.7902470181870228e-04  2.1837811529429384e-02 -6.3233707711112225e-02 1.2645059470769507e-02  6.5897410132014958e-02 -5.8555140320154346e-02 4.7887383922919600e-02  4.2726428350965927e-02 7.5160403799702444e-02 4.3244487189405677e-02  1.4193622416316744e-02 -4.8932783209244893e-02 -8.5725576149129193e-02  5.8112902098124281e-03 -7.0389996119426687e-02 -3.2389004790872929e-02  7.1906426496825288e-03 -5.5686012433663563e-02 -4.5365607792161644e-02  1.1814786453824291e-02 -5.2975910664716880e-02 -3.2506187466070598e-02  3.7639434416709396e-02 2.7953901237638669e-02 4.7399236189079728e-02  3.4307234377310647e-02 3.5077435271488690e-02 5.2454946773650354e-02  2.8392097607566558e-02 1.1483256300448338e-01 -4.6538381476292273e-02  5.7603644143250206e-02 8.4431875219955169e-02 1.7870258415760693e-02  7.7646354285538885e-02 1.5967047806158124e-01 9.3298889986186073e-02  1.8466442653994695e-02 -1.8561261575048899e-01 -9.2604568926053857e-02  3.6439214424265981e-02 2.0134713107200422e-01 -1.1183125675206598e-03  3.3245653904775144e-02 -7.3359934914959027e-02 1.6217508747458260e-02  0.0000000000000000e+00 1.4114489393311010e-02 -1.9776150202075232e-01  0.0000000000000000e+00 2.8738350530388312e-02 -1.5363873342390794e-01  1.2448760055936954e-02 7.8684877855004481e-03 -1.2288594366547231e-01  9.8540996701162974e-03 -8.6770127518806320e-03 -2.0417507484221875e-01  1.1730318695696327e-02 -9.7731997197981396e-02 -5.1172720516787458e-02  0.0000000000000000e+00 1.7552733047740093e-01 -9.1234679095877652e-02  0.0000000000000000e+00 -8.1259152474433299e-02 6.0823965272929624e-02  6.7576489823297824e-03 -7.7069939712684304e-02 -2.1616665530165154e-04  -1.8408991113031607e-03 -6.5388258124916734e-02 2.6676386718698184e-02  3.4662028049370644e-02 1.0842317052144290e-01 2.9591676762845891e-02  1.7553527594840943e-02 1.5591794141073295e-01 5.6523120326325331e-02  9.5180789307488089e-03 3.6417003177097972e-02 -3.6414342306689079e-02  6.6420084958110194e-03 7.2657092701644430e-02 1.8200728976173766e-01  7.5709803340248231e-03 2.5838318196063796e-02 1.8002413894721245e-01  2.5804606593993532e-02 9.5132791211092003e-03 -6.4423891014367421e-02  2.9026080887578527e-02 1.4695566625038976e-02 -5.2511430155659594e-02  6.0344615823350586e-02 5.2490656913328416e-02 -8.2189143390379721e-02  2.2725662108635639e-02 -7.5852808213953266e-04 -5.6729422562033310e-02  0.0000000000000000e+00 1.1619541649294646e-01 -9.8510971304830941e-02  1.1828959002056962e-02 7.0191396316355431e-02 8.6816287868271766e-02  1.3280425325887971e-02 -5.6143728158663454e-02 5.4154389654592898e-02  2.0499618299975944e-02 -4.9445233017564684e-02 4.3113644284404923e-02  4.6707852979324796e-02 -6.7897199919054602e-02 4.3492783513117403e-02  2.5711671768897239e-02 -5.5992368900240445e-02 -2.1342296465118774e-02  2.1522521393271196e-02 -6.0406520965895188e-02 2.9303877223193649e-03  5.7606232939029202e-02 -7.3412553069555381e-02 -1.2740571470099727e-02  4.7012861286910616e-02 5.2792071754741120e-03 9.1817793979623447e-02  3.0761152186827088e-02 -1.2829355091580180e-01 1.5993010828033041e-01  4.2415093766160955e-02 -4.5763280173442250e-02 9.7587103941594852e-02  3.5922146831645539e-02 -7.8011329681085526e-02 7.2817968987267875e-02  4.7153157853591074e-02 -1.3531625325667118e-01 1.4698022841954125e-01  1.3049089074959467e-02 -1.1773716635457118e-02 6.2375930851726241e-02  5.9346091530559095e-03 -6.2686326799021280e-02 4.3381170317047454e-02  1.2244553392917204e-02 -5.6162161840997094e-02 4.0006438117703644e-02  7.2616257407291246e-02 6.8350223577991906e-02 -1.9040649079614849e-03  5.5900252529619748e-02 -2.2637267957863683e-02 7.6475285460678791e-02  6.8280052024472654e-02 -4.9907153465177871e-02 -7.5847052426777778e-02  5.6883592031564352e-02 -6.2470440797541375e-03 -6.1420476048256942e-03  1.1023202403360312e-01 -6.9808894686597383e-03 -1.5374092212967341e-01  3.1276110671981459e-02 4.5396941421130639e-03 5.0818195804439706e-02  2.6176621760759418e-02 -1.6087307326971525e-02 5.3814231028843605e-02  3.9228204925072369e-02 1.3487605442387524e-01 3.4929298965156192e-03  1.2083926759405411e-01 -2.2936972440840545e-02 6.5443485450405884e-04  3.9314551633613179e-02 3.6727301690238821e-02 -2.9514289965889375e-02  3.3960068505979248e-02 4.1554395870064195e-02 -3.2325093901593091e-02  9.3228062220270816e-02 -8.0076931484791836e-03 -3.9804099884923526e-02  9.8715972002395486e-02 -7.4575818361753664e-03 5.7500831074706577e-02  1.0845852788234080e-02 -3.0975937826718310e-02 -6.8060405310075150e-02  2.8623121696607960e-02 -4.1705787583835439e-02 -6.0253088920177250e-02  3.2002768063508817e-02 -1.5163158746365573e-02 -5.0024464861049035e-02  1.8750689717752081e-02 2.5587541865322663e-02 7.1099739673860504e-02  7.9394891421779371e-02 4.4786734409803367e-02 -7.1842355442792785e-03  2.7176313422407433e-02 5.1626138111026842e-02 7.7940366592165050e-02  8.7277022153223166e-02 3.8432956984234039e-02 3.8149560942469060e-02  0.0000000000000000e+00 1.4548466718168659e-01 -4.9267846091598635e-02  0.0000000000000000e+00 -3.5735387369548038e-02 -7.6293240510323365e-02  0.0000000000000000e+00 -2.9517594624156679e-02 -9.1948768979230225e-02  3.0641912627605718e-02 -6.3673029173931597e-02 1.9525509163236773e-01  4.3749629601756060e-02 -7.3674162597109696e-02 1.8635112286021638e-01  1.0294826964969524e-02 4.6979633060164512e-02 -5.6459167006282514e-02  0.0000000000000000e+00 2.9762438283573948e-02 -8.1725178645118704e-02  6.0083320216992890e-03 5.9164311667144004e-02 -3.6967219360441408e-02  2.4642139520502062e-02 -6.5464475022138438e-02 1.0749784912249781e-01  1.4798353293836714e-02 1.0304860335965839e-02 6.1711677219328298e-02  1.0727865001875765e-01 1.0461891111728672e-01 -1.0159243922405889e-01  9.9042283318505481e-02 -3.9859341406124904e-02 -2.4255156544529900e-02  1.2987418535035400e-01 9.7478201194035705e-02 -8.5469591579022286e-02  3.0109709254229653e-02 5.4339932059026853e-02 -6.7864869055432667e-03  1.9327966598759697e-02 6.5421557058606708e-02 -7.3123915609306965e-03  3.2289830724875158e-02 4.8082858297150685e-02 -2.9393758225002599e-02  0.0000000000000000e+00 -1.5322111286023729e-01 4.4730228937542242e-02  1.5271916261594491e-02 2.4042870781933685e-02 -1.0344255416561171e-01  2.7003307029297052e-02 3.9171304708887404e-02 4.4150120175982827e-02  2.2913560657626803e-02 5.3883136041858556e-02 3.7192917409135745e-02  2.8763195410211110e-02 5.0362522391315973e-02 1.7906729476277555e-02  8.0723265664386298e-02 6.1251930336794803e-02 -3.6800198506084118e-02  2.9607457474756672e-02 1.9468638198934678e-02 -5.7099339776522998e-02  3.8129757123124712e-02 4.1350248862168121e-02 -6.3789570796845732e-02  9.5226920527126724e-02 -3.4038671640636134e-02 -2.5079758707378524e-02  6.5497861765556262e-02 -7.8762644575448057e-02 5.4001168010292255e-03  1.0798971216696797e-01 -9.5777430016382628e-02 -1.2023735036033457e-01  8.6087278980321646e-02 -1.2771121755886689e-01 -1.2517872369828600e-01  3.4049454033249965e-02 5.2249542178113159e-02 3.1579506416058785e-02  3.5024989414143018e-02 5.6879592279531210e-02 1.5412777191918279e-02  7.0391808261425267e-03 -6.1955881664538248e-02 1.6417556015667492e-01  2.8775165420895709e-02 8.2085659671314259e-02 7.7622043027672658e-02  3.1995951645420004e-02 1.3806310565023128e-01 1.5085217449680194e-01  1.2