<?xml version="1.0"?>
<VTKFile type="UnstructuredGrid"  version="0.1"  >
<UnstructuredGrid>
<Piece  NumberOfPoints="562" NumberOfCells="2167">
<Points>
<DataArray  type="Float64"  NumberOfComponents="3"  format="ascii">1.368988780486386 -0.3330614804626422 0.3812091262482924  1.457971735921389 -0.1022985678317614 0.3848351862271924  1.610427907917255 -0.2543337204802068 0.5283220094529932  1.517018421924314 -0.2975870322441377 0.2373535790744415  0.2896649584838891 -0.6565336317944969 0.3023309575633568  0.1476062501325057 -0.7596307241376263 0.3283146094026839  0.2103887490757956 -0.916837934661527 0.3815037813901131  0.2689768990101102 -0.8331508488021908 0.5326326663736717  0.9156822098122387 0.1728678968738864 0.3547279359267569  0.9955038627747099 0.1533306194452782 0.6087026577562188  0.7890673547573852 0.1092600253823605 0.4080960165386402  0.9145731457487908 0.02582743292350364 0.3935106194697764  1.555529446910997 -0.5403673213763167 0.3112575692626874  1.348103006996482 -0.462351674863219 0.1749673809371412  1.400987129938871 -0.69735066861689 0.1355899121124687  1.379596868832529 -0.6110590497219095 0.3769781373204191  0 -0.4990262892337586 -0.03118914320056031  0 -0.7290746446371459 0.09885523113658878  0 -0.717672921293292 -0.1906601281732726  0.1968984162950436 -0.7040029471989069 -0.07369861360184334  0 -0.04626762634821223 0.7372759069896635  0.1747349115361219 -0.1710428392996126 0.8075209349320995  0.1736439618246974 -0.1962945897661325 0.6287261280994423  0.1554956487469918 0.01915161770726388 0.8205218561784148  1.468118261285947 0.4388895086210086 0.1612631929613552  1.314649208445651 0.4683262063503433 0.04261620133015324  1.344984587319364 0.2109573947886681 -0.02958325590058262  1.313873754896346 0.1816089619152257 0.1471166805105471  0.8054134969450556 -0.533449770498696 -0.3926139635083312  1.023959850515393 -0.6045695018332022 -0.2205179401063885  1.05215698719499 -0.4565551953633328 -0.3958586963103667  0.8906623628738856 -0.3599786025326254 -0.1746980748537972  1.697689701537584 -0.1214082871572868 0.1246812640999428  1.488464593112258 -0.01630978270888243 0.02506236650239546  1.430421324362075 -0.1422530463333789 0.0006438225420573964  1.443375672974065 -0.09622504486493764 0.09622504486493764  0.7321510998862281 0.5624492232270197 0.3646846381716035  0.9239002426432321 0.3480246702761787 0.1811782883685  0.7490852309803118 0.4095827285081708 0.1339143819021366  0.9285858048943815 0.6335571890886311 0.2734941480292951  0.5604589232358378 -0.5698201261526246 -0.445758982164192  0.6089524280343109 -0.7218043571025563 -0.2041610728153083  0.6992001125134369 -0.7541456942161303 -0.5502812588103354  0.6274724868209266 0.4419785778654846 -0.5250198354585243  0.8756473641379455 0.3468289673768704 -0.5629197215258924  0.67802877664681 0.1808686458692327 -0.4046923641025996  0.5747192133026287 0.2418214339106003 -0.6661394725993455  0 -0.05589422902377143 -0.4966102514551253  0.2056253598613783 -0.1053038618535594 -0.6787933827793691  0.1556038154442484 0.06282062757538044 -0.6543309982444776  0.2724660772724383 0.01271359915602951 -0.4910330623919412  0.9865780311818615 0.5347283976096202 -0.3161606543928742  0.8204442367782485 0.5439521650280197 -0.46835255331516  0.8298883357700151 0.2747691377838339 -0.3083728461704535  0.6862435664967209 0.3812464258315117 -0.228747855498907  1.177314513331318 0.2155896063490769 0.2140622858922932  1.267656842582551 0.5005914574877968 0.2726043363799996  0.5728594645233351 0.3135209056411565 0.5449126792957779  0.5106867385450642 0.5036153923917321 0.4965240972019211  0.7698782860739618 0.3545773464498151 0.5878168661371025  1.257062485956698 -0.4638359972454 -0.342956295722521  1.188194666541641 -0.2467563208328611 -0.4932880249876783  1.208812547869822 -0.2451038235802088 -0.1523648506518715  1.405543018003129 -0.3155823461555193 -0.3144549970062264  0 -0.1321637113190494 -0.9912279018522304  0 -0.3021402933326705 -0.9528694918273042  0.2240193167333228 -0.2163747517189394 -0.968604487305365  0.1588608620926228 -0.2417277328284706 -0.7863213987186402  0.234290723282165 -0.4158101367292431 0.6068160964348613  0.336171426774712 -0.1961275532959101 0.7074104293225126  0.2157572393158068 -0.1977293037481581 0.4531390059122784  0.3402759051114709 0.1630546516396377 -0.7060477597699854  0.1632882031789302 0.196780254177258 -0.7862562160633888  0.231029003331308 0.1880338449615072 -0.4559977997563014  0.4728863797400071 -0.4933154510626057 0.5304985100819815  0.187854599331762 -0.6281900592232541 0.4987253373128265  0.1504625078742185 -0.4631455710889698 0.4631699097377626  0.5053019851007623 -0.4639188236666469 -0.07333804255252858  0.5526823878021767 -0.6967835074188571 0.215903246388164  0.6541336653852354 -0.7283429953560903 0.01682686734495902  0.6106765895285129 -0.435572044232048 0.1342135044502026  1.287900750276439 -0.4687881345125656 0.5967914885117886  1.473254424964647 -0.2014289120459823 0.6388974134251688  1.252201609832917 -0.1994817872140489 0.4924873900544187  0.6933873765617349 -0.4558378836670255 -0.5791550267835122  0.4866071064794875 -0.3834461891956515 -0.6005511129213282  0.6019697230687768 -0.6242818145703938 -0.7168889634012832  1.902820210771035 -0.06211515387208391 -0.2891430129447606  1.990339083299429 0.001064238785733084 -0.07652382797423923  1.724478368935762 -0.003788849933621816 -0.09935623650575776  1.954875178599839 -0.1249628659413422 -0.1581861500923273  0.9809979007020542 0.3576737082789349 0.535667969994543  1.241639713161487 0.2329691467692865 0.4709274800730408  1.03542332926206 0.2261833785676189 0.277619257236822  0.844968024044826 0.2915591042812161 0.85479271387891  0.9643254804467414 0.1075471943400586 0.8675308624173648  0.7528609021968682 0.08903098632416863 0.6868333670574929  0 -0.2092988896484911 -0.7083966808149078  1.404920008928814 0.3372989555460403 0.316767914436192  1.004219460199691 -0.2737979137568052 -0.4388250598374921  1.180873089276474 -0.4621305164745083 -0.6560168552866585  1.053305258761655 -0.3284868324358208 -0.7801286865200052  0.9712979390145692 -0.5110446369696806 0.4327235545709323  1.146293004560022 -0.6668284527145589 0.469882080380535  0.8963334118470608 -0.7310840957918627 0.5111265403121084  1.08206659020357 -0.7596894074461439 0.3528958016823166  0.8015085840467554 -0.3389768733860401 0.6685991538206634  0.925104953366791 -0.4648901631989753 0.7519021955945258  0.9984935472219151 -0.3065996581170283 0.5499211474208088  1.002288197777214 -0.2792071613298824 0.8153893475416765  1.215846416214816 -0.2524645935340363 0.7497327115816464  0.3024217308764339 0.4448958319181652 -0.8808605755070491  0.390139049844082 0.2930948946191007 -0.9351790364388617  0.7478274009820868 -0.4286314222864522 0.5038265581755443  0.2148561413125 0.491329266113953 -0.05528733303340339  0.2309383938052318 0.714092978138881 -0.2036113182046372  0.1975535218752708 0.6794042289099913 0.05518288617085648  0.3761572698058325 0.4709053903224183 -0.110071861452686  0 0.5090940372412278 -0.5349460340386839  0 0.5350603504932784 -0.8430433168771743  0 0.6738578937333988 -0.737915259701458  0.164109593248377 0.5761575785324918 -0.5890928788615022  0.2475029747273103 -0.4561046932550408 0.8800394901604827  0.3694925429576245 -0.5958501646405832 0.7791131291684588  0.4406799393760092 -0.3650559370457628 0.6810505410128649  0 0.4382264083498228 0.5937380410910144  0 0.7379152597014565 0.6738578937334002  0.1559289910125653 0.445628518864029 0.6984925326213108  0.2324810536730123 0.5213808955010337 0.5258435644279391  0.3555983309770547 0.656027019032849 0.3461651671211329  0.2458237569105728 0.8801511092168622 0.4561636277282752  0.1607954010233367 0.6785216544507058 0.4667873694261923  0.3826204414382912 0.7779301383454942 0.5949541429760784  1.52119605566691 0.1993844535737337 -0.3296462252473032  1.414311204796628 0.3898129177969151 -0.2057175795712648  1.35043553368913 0.31412477587753 -0.3988690910712985  1.281185985486842 0.1662780899176228 -0.1943758563769023  1.099075518775129 0.05947806630170303 0.3306302206363526  0.3679939443262019 0.3447617450768622 0.6523888179221276  0.4109508094888962 0.2773549013757027 0.3912230928899285  0.1373126243972625 0.5009352089527304 -0.4461785342859961  0.2664596187693265 0.6010832976391717 -0.4365657049749609  0.2179946197840175 0.4409807484602174 -0.2220003033063632  0.2617145123926756 0.3390154592910617 -0.3562749789872797  0.5824068775984312 -0.3170408450840759 0.3306350426033773  0.7199893230774794 -0.3705530655917506 0.2326552719422485  0.8358295522502738 -0.2669244509736641 0.3143056243869983  0.5587150980897445 0.6294294572528504 -0.01623015267248071  0.753690685110203 0.6532057608559532 -0.2369277096202369  0.7001301874755437 0.7550693058622343 -0.0524082716182921  0.6800782824703502 0.4417054734682031 -0.04452076045795449  0.4884308328800496 -0.9272425338669441 -0.2789182923255702  0.3906764030666174 -0.9712790424584049 -0.1262145572896986  0.6009334315497298 -0.9480231963115218 -0.09890104373476166  0.420071318585673 -0.7193185330298141 -0.02275610742170561  1.385707654592962 0.3976065221960926 -0.5961074699430042  1.219420193990472 0.4625196146528674 -0.3667717582939762  1.149364473949646 0.3130412125134983 -0.4806343490178561  1.195708172099174 -0.7474690340482983 -0.2799311705246049  1.219932523946796 -0.5119522484128803 -0.1401161375153302  0 0.4628593543202276 0.8855632312882982  0.3015827308425723 0.3699196515636318 0.916118113296736  0.2831250486531117 0.5320147666868361 0.8321945108773773  0.3825795555914422 -0.6690296309761865 -0.2952055242879837  0.4043090205097222 0.4000926521875504 0.2655017005394236  0.5978414449389082 0.3237928842626442 0.3209363851519929  0.2645148779899891 -0.338943586656435 0.3561994752880429  0.4219521826235639 -0.4004970037301178 0.2625370852546315  0.2094134450411068 -0.427547835839946 0.2479337980438358  0.1857857161792982 0.4082826524643675 -0.7114865320202091  0.4350093809141001 -0.08779074384838936 -0.7057378089671015  0.621
[...]
<PointData  Vectors="state-0"> 
<DataArray  type="Float64"  Name="state-0"  NumberOfComponents="3" format="ascii">2.7464749083076653e-02 3.1682672223299624e-02 9.7291177404498885e-02  3.1782753176607302e-02 9.5635738377773723e-03 8.1067275135973116e-02  2.6400604403484837e-02 -2.3416919258221012e-03 3.8359016070920154e-02  3.4537151553794540e-02 -2.2894342084198369e-02 8.4097876522639725e-02  1.2927187847634546e-02 -1.3390755898987100e-01 -4.4598088333353797e-02  5.4382671893787680e-03 -1.2092260562554594e-01 -8.8473640167347975e-03  1.0942594427073762e-02 -7.8323322988855762e-02 1.7840133026708095e-02  1.0938982178793643e-02 -7.1087773636672069e-02 3.3261209636162602e-02  7.3768446924843814e-02 -4.8471839501638248e-02 1.6640462069894374e-01  2.6655737630330217e-02 4.3549155664577496e-02 7.9972532907809951e-02  6.2178101728208118e-02 -8.1411104497271083e-02 1.6787720183336130e-01  7.6606671363887296e-02 -1.0993378016136482e-01 1.3579027490833567e-01  2.2846427365588326e-02 -2.2244051927535521e-02 2.4700088160861357e-02  2.9422422300425050e-02 -3.5514579481587094e-02 7.6780335287521276e-02  2.7175973507649328e-02 -3.8593674944741585e-02 1.6154398305681054e-02  2.3956796426631458e-02 -2.6745395788168164e-02 2.9450761326366433e-02  0.0000000000000000e+00 -1.6915493713528471e-01 -1.0169593607213899e-01  0.0000000000000000e+00 -1.2416045726482854e-01 -1.0911409741954423e-01  0.0000000000000000e+00 -7.1495583748655764e-02 -1.4421831202441909e-01  6.1289566261507108e-03 -1.0764442805100623e-01 -1.2248587956128780e-01  0.0000000000000000e+00 -1.3323027367976256e-01 9.1257605391846242e-02  9.0980363933113578e-03 -8.3448021480566389e-02 8.3766076780421833e-02  5.1699990463478195e-03 -1.6536581197521005e-01 7.6958984981364539e-02  1.0130181291127239e-02 -6.4076244438308269e-02 1.0043298072843433e-01  4.2058206150404377e-02 5.8745036076958142e-02 -5.1036782224317991e-02  3.8471693456278745e-02 9.6032136315702163e-02 -6.1282379839004359e-03  1.5777466341353211e-01 1.0043300395400073e-01 7.2853133798074343e-02  1.4868123070856862e-01 1.7321670678279687e-02 1.1813080802991763e-01  3.1402833744901569e-02 -6.2651428744563809e-02 -7.0234725485382149e-02  3.2121535677218344e-02 -7.3970500809743073e-02 1.3543825776442872e-02  3.9468346226227601e-02 -6.5567282730716797e-02 -4.5239571045085844e-02  8.2576734567314347e-02 -6.1152176625474321e-02 -1.6553294167743743e-01  1.0439096700394387e-01 -3.2678874707621722e-02 4.9466163407417281e-02  2.4777040298131134e-01 -1.8058670564444136e-02 4.8749614341385805e-02  2.3862650637936692e-01 -4.2835940165669863e-02 -7.3545838173412217e-02  2.1684300524993741e-01 -6.4209110633266370e-02 -6.0213104803832273e-03  1.8273459738533799e-02 6.3086271927327492e-02 9.0957707863010301e-02  7.5357478685430482e-02 6.5357128287410041e-02 1.7135844009971735e-01  5.0320971667431394e-02 9.7348693532286354e-02 1.6854273845182383e-01  3.0883881820211262e-02 8.1318684194847640e-02 -1.6923616809258184e-03  1.9962900936576908e-02 -6.0062632132766768e-02 -8.6422118682350571e-02  2.2661929022379918e-02 -7.9988810510597988e-02 -1.8825413756377921e-02  1.7933775541806689e-02 -4.3996520096272022e-02 -3.3928863175602765e-02  1.7671173018123845e-02 1.0333170113292506e-01 -4.1568159713613731e-02  3.0585343200307979e-02 5.3142986732665348e-02 -6.4258996427244891e-02  4.9819837694125318e-02 1.7654464260892330e-01 -8.8933690110832617e-02  2.5099173395893525e-02 8.0670353834683711e-02 -7.7558552963777491e-02  0.0000000000000000e+00 6.7138515858629289e-02 -1.7888134769281683e-01  6.2454214792808478e-03 1.0438510144843038e-01 -1.2931827461687584e-01  6.8454817051774447e-03 1.4263841658703214e-01 -1.0920488876261136e-01  1.7471350389841864e-02 1.1062209695272021e-01 -1.6398298604938122e-01  3.3188215761922560e-02 7.6678149879466848e-02 -4.2597139477721917e-02  3.6342843360803428e-02 5.3696611256613229e-02 -6.7899080368017700e-02  6.3125739731402522e-02 1.9023369443632132e-01 -2.2196312213982518e-02  4.7880580733451174e-02 1.9082833153526071e-01 3.3746147851872209e-02  1.1599435113668874e-01 -2.0759086516880824e-03 1.4354605433939141e-01  4.4160186007437735e-02 9.5438374825865424e-02 -4.2565902119072324e-02  2.0121957850276734e-02 -2.0900635604258925e-02 1.5233732743433817e-01  1.2484651672412844e-02 3.1394975931376357e-02 1.1594059762245701e-01  2.7184211721597344e-02 4.5071037458341352e-02 8.3321229760614207e-02  4.5346575548638732e-02 -7.5763255946268551e-02 2.3554441899666885e-02  4.2109536675236606e-02 -4.3726391921508810e-02 -6.1839637916260189e-02  1.3365150839740272e-01 -2.0283063263823412e-02 -1.4022804322890112e-01  4.9599750215825078e-02 -6.0932636050183842e-02 -3.2047866771535261e-02  0.0000000000000000e+00 3.5251239994763340e-03 -5.8010260162297600e-02  0.0000000000000000e+00 -1.2126377914313391e-02 -6.7099320058047182e-02  1.1666095038848450e-02 -8.8407483458081658e-03 -6.5655064182078213e-02  9.5984565547840572e-03 4.0052878684753997e-02 -1.2097183097156333e-01  1.1987851172675064e-02 -1.3922033544967105e-01 2.8910337467783626e-02  1.2743097213657286e-02 -1.1076326340267977e-01 7.1999771621397493e-02  5.3202477646844392e-03 -1.6317583041536093e-01 1.0857147631439905e-01  1.8315477083609668e-02 1.0560159115924765e-01 -7.9108985029006637e-02  9.2432104285034029e-03 8.5239755625686725e-02 -7.4009385786229329e-02  1.4206851866330982e-02 1.6393868929090169e-01 -1.2180911157093317e-01  1.9241796012654463e-02 -1.1127629669720372e-01 3.3300621540133926e-02  7.1234509524591497e-03 -1.2957468802285563e-01 1.1357984913514306e-02  6.0948318599091623e-03 -1.8247901051539814e-01 -6.8570983702196291e-03  3.5117988729417467e-02 -1.4376180210333495e-01 -1.5173042043986604e-01  2.1433905713342433e-02 -9.9733633564954960e-02 -4.8476431720579352e-03  2.2848944731107292e-02 -8.5344361227509685e-02 -2.1988614936394786e-03  4.7549514526246790e-02 -1.8662499048831624e-01 -7.5696936802780321e-02  2.1193724175775940e-02 -2.6967208323525650e-02 3.9716928221813247e-02  2.4981049092290319e-02 -1.2030070892329351e-03 3.9377341905130182e-02  2.5999377589394079e-02 2.7841668290087985e-02 8.8119808958766685e-02  2.7127683751100803e-02 -5.8768205147307497e-02 -6.1991745975793704e-02  1.3810660429237183e-02 -8.3170144106518695e-03 -1.2216758149481778e-01  2.2060060674035879e-02 -4.3906750681854866e-02 -5.7750734530824438e-02  3.6869524114834538e-02 -2.1963892449814709e-02 -2.8617331555984629e-02  4.8624951096919625e-02 -9.8691237832650332e-03 -1.7306267206352973e-02  1.0509800060757221e-01 3.8453293043034235e-02 -3.7241679953701562e-02  3.1216028125723758e-02 -2.8548886410029211e-02 3.4231347525983387e-03  2.9716466922191816e-02 7.0849709607726533e-02 5.1663452252014123e-02  2.7263772409925741e-02 6.6920384036888200e-02 5.4407025619853909e-02  9.4622416968820539e-02 -1.2849105745187061e-02 1.6288463310141843e-01  1.7003364420649758e-02 1.8097596662387295e-02 5.2886334701053681e-02  2.3448085801979969e-02 1.0731494428693611e-02 6.4502092786383761e-02  2.5231395187134343e-02 8.6380713825127704e-03 9.1198025088545978e-02  0.0000000000000000e+00 8.8261238871327793e-02 -1.3619237042012458e-01  4.0226752388541218e-02 7.5651721389604007e-02 1.4642338680065148e-02  4.6876963608241125e-02 1.2285943212432733e-02 -1.2741090357220639e-01  2.3405492095663099e-02 -2.5891385812472009e-02 -2.4861963076325381e-02  2.2676715654378312e-02 -1.8761233334646389e-02 -4.2417166924747583e-02  2.5992287898314832e-02 -1.3190623718851957e-02 8.9663142555759842e-02  2.5138773616465319e-02 -5.0484799154688231e-02 4.6323856235808432e-02  1.3797171120085449e-02 -5.3063151480128662e-02 3.6721653487444467e-02  1.9252459929917778e-02 -4.6213817544136754e-02 2.6006821359041254e-02  2.7170179321613586e-02 -1.0850947426017004e-02 9.0657794255808735e-02  2.2558752024724994e-02 -3.8566891006559141e-02 6.3329801459185667e-02  2.4812426461630448e-02 -1.9161475514665533e-02 8.3975785580093290e-02  2.1532426360845302e-02 -1.6077368624200464e-02 6.0782670973529393e-02  2.3428798168173021e-02 -1.1833092353966007e-02 5.4852296855857352e-02  4.4786414479951230e-03 3.6773954168315734e-02 -5.7906432235917044e-02  9.8775391185920870e-03 2.9489983853288586e-02 -6.4184433179343650e-02  2.7625816707885342e-02 -9.1884497221107100e-02 5.6722886630013174e-02  9.2282698606486833e-03 1.7416713713777932e-01 8.6998420667337040e-02  7.9165193303699106e-03 1.2551596119891284e-01 7.1421947029479183e-02  6.6654692427311601e-03 1.0234339143522642e-01 1.3769831114442635e-01  2.0391204962710636e-02 1.8610591332737264e-01 7.8256150817896802e-02  0.0000000000000000e+00 1.6993237813800707e-01 1.0531561307246355e-02  0.0000000000000000e+00 5.1535566917344240e-02 -6.3620914227513856e-02  0.0000000000000000e+00 6.2067936024841161e-02 -5.5553588772389917e-02  5.3580489782557531e-03 1.1836866839979096e-01 -2.7388994177926802e-02  3.9798342333310279e-03 -4.4230735425464664e-02 6.4077614658520521e-02  1.2400528161964082e-02 -5.2260601796591748e-02 5.5950028031320626e-02  1.9099922062506082e-02 -8.6226602544812792e-02 7.0271488956096348e-02  0.0000000000000000e+00 -4.4355113413543118e-02 1.6342635859135185e-01  0.0000000000000000e+00 4.0852719009671599e-02 5.2283113721894009e-02  6.8090466003129096e-03 -1.4576499113664947e-02 1.3236177572643809e-01  1.0311633041432910e-02 -2.0647191341704828e-04 1.3989159962480693e-01  1.1107017948342688e-02 4.9307315377244129e-02 1.1693835737403621e-01  1.1315435221971867e-02 6.2466555308531943e-02 4.1332499618159074e-02  3.6671142835820389e-03 4.6725266195746060e-02 1.2163683533480213e-01  9.2643978852796731e-03 4.9382404722757837e-02 4.9665565185755739e-02  6.2929868579178427e-02 3.4078695833488493e-03 -5.9826428682648411e-02  5.0044892088307751e-02 5.1902907583927113e-02 -6.6446286682492736e-02  5.5115022302182119e-02 -9.0576752503037216e-03 -7.6000491335169007e-02  1.3489210942144403e-01 1.3404323535402046e-01 -3.6977140923272560e-03  1.0530914498353716e-01 -8.7591067127473402e-02 1.2752829266477192e-01  1.1855703577951612e-02 -1.9276307021350383e-02 1.2771511550429201e-01  2.0408272686518580e-02 -5.0998626588118386e-03 2.0549609041967126e-01  3.8100065361267002e-03 1.8030158734715185e-01 2.4436414053662647e-02  1.2698403629316532e-02 1.3385445319013012e-01 1.5341668296642267e-02  9.8832335029978881e-03 1.9299100400490093e-01 1.8944601075575582e-02  1.4722712219629131e-02 1.9531505116251321e-01 -4.2456420805943355e-02  3.9687427750439833e-02 -2.0218613914805364e-01 3.0165665440418432e-02  5.9026845732884560e-02 -1.9286826508762461e-01 -2.8684804928211967e-02  7.4726313495001001e-02 -1.8357241348597617e-01 2.5599399514477327e-02  1.6939473208286624e-02 1.2087553795338037e-01 9.7843099878323403e-02  2.5892273734086452e-02 8.8551304932414060e-02 -1.2596458857311043e-02  3.2361557113128749e-02 9.4285402944064844e-02 -9.6902523214744405e-04  4.5161186607990157e-02 1.6168393808238959e-01 1.1486015096434134e-01  1.7982661842082099e-02 -6.9662181884279695e-02 -2.5002706580960505e-02  1.0100155058375061e-02 -6.6609171358595606e-02 -1.4421275648786584e-02  1.7504012553970338e-02 -6.9301575067322638e-02 -9.2070013354810121e-03  1.3519790009972141e-02 -1.0629420845127288e-01 -7.1029009197911608e-02  3.3920550861747022e-02 1.7796282664906356e-02 -4.4732090138842821e-02  4.4452790198850546e-02 6.1201451482002286e-03 -8.5783404641402411e-02  4.1044605457614111e-02 2.6065163844786875e-02 -6.9805590829308525e-02  2.6529348119689305e-02 -4.3072551504364398e-02 -1.4433936543786899e-02  3.8039592008728557e-02 -6.7286435343854978e-02 -3.2260122008092112e-03  0.0000000000000000e+00 1.7929735650907143e-02 6.5240227443638499e-02  1.1609167024871411e-02 2.0473165781576003e-02 7.7719212246090533e-02  8.3233775675468306e-03 2.9364420255313453e-02 6.2800034699999674e-02  1.5164792486351636e-02 -7.0532984562971579e-02 -1.0293945411174082e-01  2.0837318338910900e-02 6.6374217179977824e-02 1.9144989102912569e-01  3.8643136867743275e-02 1.8572656441978079e-02 1.9770690610642619e-01  7.5273676542206387e-03 -1.9934669809888592e-01 4.3968038870110485e-02  2.3947127314561667e-02 -2.0842754709229849e-01 -8.1704580500937853e-03  7.1952763427649375e-03 -1.9505468062401263e-01 -7.0104931624620694e-03  6.6323984171445432e-03 8.2793281804848434e-02 -4.7453123897496521e-02  1.7139292221887904e-02 6.7625492979134963e-02 -1.1660217537301348e-01  1.8158088364774349e-02 -4.3411267449990645e-02 -3.0740477725020393e-02  3.0995842508333586e-02 1.6241343986226058e-02 -1.0445275090961689e-01  4.2241690377098344e-02 9.1107256145532209e-02 -1.8414960752234508e-01  3.6900707655024748e-02 6.3887393200950715e-02 -5.8895228461049089e-02  3.4129074077173256e-02 4.2842263454874012e-02 -1.3341260316206621e-02  1.9256914030372180e-02 -5.0935126520949059e-02 3.2382555201515270e-02  2.2925697575114097e-02 -5.4868136806823280e-02 1.9656632203078978e-02  1.7267405023761652e-02 -6.2407394264588183e-02 1.9172767752401523e-02  3.0421110997402790e-02 -6.9503847168121177e-02 5.4585201616050606e-02  1.6705208822239137e-02 7.4098214240206725e-02 5.5994525699405273e-02  1.0033768781757877e-02 -9.3979385201281660e-03 -1.0987424243901966e-01  9.8714604746244806e-03 -4.1506941818488609e-02 -6.3953062439522645e-02  1.0382482230654768e-02 -3.3479894796727215e-02 -6.6811443437921225e-02  1.2209264574486581e-02 -3.9206683085284369e-02 -5.4967724758969792e-02  3.0944797366402200e-02 4.7029736790877658e-02 2.2641124635802042e-02  2.5552557103966887e-02 4.4785859954318968e-02 6.2461701061453838e-03  1.4983228193447527e-02 1.2445314602680503e-01 -3.7663155466297317e-02  2.5955143763940199e-02 9.2961359061668428e-02 1.7726343982687399e-02  7.3299167602308812e-02 1.6070127100962181e-01 9.6142607424059265e-02  1.7493372021763952e-02 -1.8557807123098269e-01 -8.6600933382514594e-02  3.4074574094541690e-02 2.0047183174490224e-01 -2.8861719961645227e-03  2.8501150804347661e-02 -2.5227236859959923e-02 3.9674736265872423e-02  0.0000000000000000e+00 4.9542199377741840e-03 -1.9586014123246237e-01  0.0000000000000000e+00 4.3138768421182257e-02 -1.5833057606610301e-01  4.4777462906733130e-03 2.5139197091231618e-02 -1.2880603290244796e-01  8.4625377103528607e-03 -1.5481232113404651e-02 -1.9966281895317101e-01  7.7934139997562924e-03 -8.5884394607459363e-02 -9.9792656116527767e-02  0.0000000000000000e+00 1.7032347649772345e-01 -9.7439613057447180e-02  0.0000000000000000e+00 -7.4736908611424999e-02 -2.4248171901685399e-02  1.2488082310286981e-02 -7.5508150014016853e-02 -2.9710287804164886e-02  8.0844251365631906e-03 -6.3030978518686859e-02 -1.8354989088960133e-02  1.8075693182380139e-02 1.1237891877114857e-01 4.1700889166375973e-02  8.8387974905722397e-03 1.5813872738312845e-01 5.8374450478825765e-02  6.8905525484277835e-03 5.3230210817992132e-02 -1.8278117242321434e-02  5.9586724485313483e-03 7.7335672546439554e-02 1.8085798616705451e-01  5.4038583555288105e-03 2.9478460977931442e-02 1.8225387209729710e-01  2.1536826926516699e-02 8.5640523616873666e-03 -7.2317710506894589e-02  2.5584892167965549e-02 4.8315804910791752e-04 -5.6505042256877608e-02  3.1125304885133022e-02 5.2741939709441528e-02 -8.8355530011914207e-02  1.6681449835731749e-02 -1.0122748397560525e-02 -6.0682393158995561e-02  0.0000000000000000e+00 1.3110108205405965e-01 -9.6604490941013144e-02  6.4493545042485821e-03 5.5892315477675363e-02 1.1311051042637370e-01  1.5675129372505845e-02 -6.6461282795362286e-02 4.3991690200718664e-02  2.0179855802591802e-02 -5.4802390277474779e-02 4.8294418313814653e-02  2.3954035817140180e-02 -7.4831956652479756e-02 3.9503599073992861e-02  2.1722837575920608e-02 -6.0333299671059624e-02 -2.0826726624455224e-02  1.8058988853705840e-02 -6.6422059961896290e-02 2.2169981696763138e-03  2.9777402962133430e-02 -8.0414836210313187e-02 -1.3556226529718975e-02  2.2962723681754144e-02 -3.0034914392677138e-03 9.8875620804319789e-02  2.9777642850391070e-02 -1.2493098052579926e-01 1.6138239712067476e-01  2.2588148580889967e-02 -5.4088913079876497e-02 1.0260831467313858e-01  1.6380744769489659e-02 -8.4761248712777182e-02 7.4258528722608727e-02  4.5841268866375746e-02 -1.3348723270924726e-01 1.4898907262818969e-01  1.5870820979754396e-02 -2.5888422197150183e-02 6.7551291312004783e-02  1.1107983092745693e-02 -7.6817801702206159e-02 7.8664835126073390e-03  1.2176438668563954e-02 -7.2983965781390991e-02 2.1964423203409151e-02  3.0148016416796129e-02 8.5572257999485382e-02 -9.7755813822078333e-03  2.5357797024207665e-02 -2.4963659635126173e-02 8.5315952584085045e-02  5.0820349383974693e-02 -3.4553049422527300e-02 3.1635769433686373e-02  4.6693681087377099e-02 -1.1272214061744484e-02 -1.3193557584735963e-02  1.0531007906058786e-01 -2.9466430969609467e-03 -1.5398700413717678e-01  2.2092113544259041e-02 2.6893190780771827e-02 4.1610597091306087e-02  2.1381464707175692e-02 1.0712444862838448e-02 4.8901157140043179e-02  2.2094853091050345e-02 1.4054399557775069e-01 4.7477434266943678e-03  5.9655833130359687e-02 -6.3400562330908988e-02 -4.4799070625504728e-02  3.0229438744606409e-02 -1.8032110519740369e-03 -4.0041735426603331e-02  2.7069438200386039e-02 1.2215059988040483e-03 -3.6208944942480920e-02  4.9840706444472090e-02 -1.8006053951225787e-02 -6.4705980591105494e-02  3.6001704219166535e-02 -4.6699545170055257e-02 8.0492321988433257e-02  1.8208590102674758e-02 -3.3076992326959161e-02 -1.6007742771834605e-02  3.1399701804352365e-02 -3.5854107089735791e-02 -3.6209786437962064e-03  2.0227885771466302e-02 -2.5416116850890912e-02 -1.2297868471757362e-02  2.6512898903822513e-02 3.8055781431134555e-02 -7.3696721646772910e-04  4.5748017427071366e-02 7.0132316782984996e-02 -2.3322677228969951e-02  3.6155419112467113e-02 3.9088750090375698e-02 -2.5401812637945043e-03  5.4151267856257505e-02 5.7006607435153199e-02 4.5891764140692404e-02  0.0000000000000000e+00 1.5927515295038350e-01 -4.1131014685615863e-02  0.0000000000000000e+00 2.9047341928839700e-02 -6.7114822348234945e-02  0.0000000000000000e+00 4.0769904202204381e-02 -7.1758805586000007e-02  2.9329104328096156e-02 -6.0925924490275847e-02 1.9583236581099409e-01  4.2197815667444231e-02 -7.1884052605653045e-02 1.8682303656915419e-01  8.7133780591485601e-03 6.9388367206029186e-02 -1.6248010809438967e-02  0.0000000000000000e+00 5.5591167336697271e-02 -8.5659887896820837e-03  8.9787290172804925e-03 7.1020295280260104e-02 -4.4709605298773715e-03  1.3655112271936672e-02 -7.7671212775317772e-02 1.0949551643440607e-01  1.5792885073520523e-02 -5.1646763622281225e-03 7.0722235182507406e-02  1.0241018194218694e-01 1.0858058743183441e-01 -1.0149221009572988e-01  4.8373467508011032e-02 -6.4260599380207936e-02 -4.5564014187868748e-02  1.2535299328422203e-01 1.0383369634701098e-01 -8.8862639955278599e-02  2.4360639043725239e-02 5.1697129530830610e-02 -2.7336049965401722e-02  1.9340050979188426e-02 6.7867838845540790e-02 -9.2465705310797053e-03  2.5568757285850806e-02 5.5600213735931867e-02 -4.2346036547817364e-02  0.0000000000000000e+00 -1.6360639048435349e-01 4.1357564966661001e-02  1.0073566236944281e-02 7.4545412290220006e-02 -1.0642343974662978e-01  2.0525841206144261e-02 5.3018568148421201e-02 2.8288623559087813e-02  1.8933917227825506e-02 5.8579307052460727e-02 1.9194868240436293e-02  1.9600215925139663e-02 5.1737118536258966e-02 -5.7844748556282501e-03  3.6181440332411247e-02 7.3911305507231059e-02 -5.1685007859943795e-02  2.7578558532342912e-02 -1.6349972916739928e-02 -3.9033640997709243e-02  3.2332723752885990e-02 -1.3525448604822295e-02 -3.9829421689737188e-02  4.8278728838514993e-02 -6.1766864320604152e-02 -4.8925042938405758e-02  3.6250763428219944e-02 -8.8819252295821993e-02 1.1234787370167525e-02  1.0424212426075007e-01 -9.1796077355039654e-02 -1.2162461529273916e-01  8.3437846250974820e-02 -1.2607301875628013e-01 -1.2495864863966702e-01  3.0732055761712975e-02 5.6943095154681024e-02 -7.9598284197519055e-03  2.6085761001595747e-02 5.5593073832265395e-02 -1.8279237580956273e-02  3.4734411877247288e-03 -5.9281110316367666e-02 1.6770141150233087e-01  1.4117419432611654e-02 8.0395703251179201e-02 9.2278219619399499e-02  3.0699560022199313e-02 1.3842290928633369e-01 1.48768695493053