<?xml version="1.0"?>
<VTKFile type="UnstructuredGrid"  version="0.1"  >
<UnstructuredGrid>
<Piece  NumberOfPoints="562" NumberOfCells="2167">
<Points>
<DataArray  type="Float64"  NumberOfComponents="3"  format="ascii">1.368988780486386 -0.3330614804626422 0.3812091262482924  1.457971735921389 -0.1022985678317614 0.3848351862271924  1.610427907917255 -0.2543337204802068 0.5283220094529932  1.517018421924314 -0.2975870322441377 0.2373535790744415  0.2896649584838891 -0.6565336317944969 0.3023309575633568  0.1476062501325057 -0.7596307241376263 0.3283146094026839  0.2103887490757956 -0.916837934661527 0.3815037813901131  0.2689768990101102 -0.8331508488021908 0.5326326663736717  0.9156822098122387 0.1728678968738864 0.3547279359267569  0.9955038627747099 0.1533306194452782 0.6087026577562188  0.7890673547573852 0.1092600253823605 0.4080960165386402  0.9145731457487908 0.02582743292350364 0.3935106194697764  1.555529446910997 -0.5403673213763167 0.3112575692626874  1.348103006996482 -0.462351674863219 0.1749673809371412  1.400987129938871 -0.69735066861689 0.1355899121124687  1.379596868832529 -0.6110590497219095 0.3769781373204191  0 -0.4990262892337586 -0.03118914320056031  0 -0.7290746446371459 0.09885523113658878  0 -0.717672921293292 -0.1906601281732726  0.1968984162950436 -0.7040029471989069 -0.07369861360184334  0 -0.04626762634821223 0.7372759069896635  0.1747349115361219 -0.1710428392996126 0.8075209349320995  0.1736439618246974 -0.1962945897661325 0.6287261280994423  0.1554956487469918 0.01915161770726388 0.8205218561784148  1.468118261285947 0.4388895086210086 0.1612631929613552  1.314649208445651 0.4683262063503433 0.04261620133015324  1.344984587319364 0.2109573947886681 -0.02958325590058262  1.313873754896346 0.1816089619152257 0.1471166805105471  0.8054134969450556 -0.533449770498696 -0.3926139635083312  1.023959850515393 -0.6045695018332022 -0.2205179401063885  1.05215698719499 -0.4565551953633328 -0.3958586963103667  0.8906623628738856 -0.3599786025326254 -0.1746980748537972  1.697689701537584 -0.1214082871572868 0.1246812640999428  1.488464593112258 -0.01630978270888243 0.02506236650239546  1.430421324362075 -0.1422530463333789 0.0006438225420573964  1.443375672974065 -0.09622504486493764 0.09622504486493764  0.7321510998862281 0.5624492232270197 0.3646846381716035  0.9239002426432321 0.3480246702761787 0.1811782883685  0.7490852309803118 0.4095827285081708 0.1339143819021366  0.9285858048943815 0.6335571890886311 0.2734941480292951  0.5604589232358378 -0.5698201261526246 -0.445758982164192  0.6089524280343109 -0.7218043571025563 -0.2041610728153083  0.6992001125134369 -0.7541456942161303 -0.5502812588103354  0.6274724868209266 0.4419785778654846 -0.5250198354585243  0.8756473641379455 0.3468289673768704 -0.5629197215258924  0.67802877664681 0.1808686458692327 -0.4046923641025996  0.5747192133026287 0.2418214339106003 -0.6661394725993455  0 -0.05589422902377143 -0.4966102514551253  0.2056253598613783 -0.1053038618535594 -0.6787933827793691  0.1556038154442484 0.06282062757538044 -0.6543309982444776  0.2724660772724383 0.01271359915602951 -0.4910330623919412  0.9865780311818615 0.5347283976096202 -0.3161606543928742  0.8204442367782485 0.5439521650280197 -0.46835255331516  0.8298883357700151 0.2747691377838339 -0.3083728461704535  0.6862435664967209 0.3812464258315117 -0.228747855498907  1.177314513331318 0.2155896063490769 0.2140622858922932  1.267656842582551 0.5005914574877968 0.2726043363799996  0.5728594645233351 0.3135209056411565 0.5449126792957779  0.5106867385450642 0.5036153923917321 0.4965240972019211  0.7698782860739618 0.3545773464498151 0.5878168661371025  1.257062485956698 -0.4638359972454 -0.342956295722521  1.188194666541641 -0.2467563208328611 -0.4932880249876783  1.208812547869822 -0.2451038235802088 -0.1523648506518715  1.405543018003129 -0.3155823461555193 -0.3144549970062264  0 -0.1321637113190494 -0.9912279018522304  0 -0.3021402933326705 -0.9528694918273042  0.2240193167333228 -0.2163747517189394 -0.968604487305365  0.1588608620926228 -0.2417277328284706 -0.7863213987186402  0.234290723282165 -0.4158101367292431 0.6068160964348613  0.336171426774712 -0.1961275532959101 0.7074104293225126  0.2157572393158068 -0.1977293037481581 0.4531390059122784  0.3402759051114709 0.1630546516396377 -0.7060477597699854  0.1632882031789302 0.196780254177258 -0.7862562160633888  0.231029003331308 0.1880338449615072 -0.4559977997563014  0.4728863797400071 -0.4933154510626057 0.5304985100819815  0.187854599331762 -0.6281900592232541 0.4987253373128265  0.1504625078742185 -0.4631455710889698 0.4631699097377626  0.5053019851007623 -0.4639188236666469 -0.07333804255252858  0.5526823878021767 -0.6967835074188571 0.215903246388164  0.6541336653852354 -0.7283429953560903 0.01682686734495902  0.6106765895285129 -0.435572044232048 0.1342135044502026  1.287900750276439 -0.4687881345125656 0.5967914885117886  1.473254424964647 -0.2014289120459823 0.6388974134251688  1.252201609832917 -0.1994817872140489 0.4924873900544187  0.6933873765617349 -0.4558378836670255 -0.5791550267835122  0.4866071064794875 -0.3834461891956515 -0.6005511129213282  0.6019697230687768 -0.6242818145703938 -0.7168889634012832  1.902820210771035 -0.06211515387208391 -0.2891430129447606  1.990339083299429 0.001064238785733084 -0.07652382797423923  1.724478368935762 -0.003788849933621816 -0.09935623650575776  1.954875178599839 -0.1249628659413422 -0.1581861500923273  0.9809979007020542 0.3576737082789349 0.535667969994543  1.241639713161487 0.2329691467692865 0.4709274800730408  1.03542332926206 0.2261833785676189 0.277619257236822  0.844968024044826 0.2915591042812161 0.85479271387891  0.9643254804467414 0.1075471943400586 0.8675308624173648  0.7528609021968682 0.08903098632416863 0.6868333670574929  0 -0.2092988896484911 -0.7083966808149078  1.404920008928814 0.3372989555460403 0.316767914436192  1.004219460199691 -0.2737979137568052 -0.4388250598374921  1.180873089276474 -0.4621305164745083 -0.6560168552866585  1.053305258761655 -0.3284868324358208 -0.7801286865200052  0.9712979390145692 -0.5110446369696806 0.4327235545709323  1.146293004560022 -0.6668284527145589 0.469882080380535  0.8963334118470608 -0.7310840957918627 0.5111265403121084  1.08206659020357 -0.7596894074461439 0.3528958016823166  0.8015085840467554 -0.3389768733860401 0.6685991538206634  0.925104953366791 -0.4648901631989753 0.7519021955945258  0.9984935472219151 -0.3065996581170283 0.5499211474208088  1.002288197777214 -0.2792071613298824 0.8153893475416765  1.215846416214816 -0.2524645935340363 0.7497327115816464  0.3024217308764339 0.4448958319181652 -0.8808605755070491  0.390139049844082 0.2930948946191007 -0.9351790364388617  0.7478274009820868 -0.4286314222864522 0.5038265581755443  0.2148561413125 0.491329266113953 -0.05528733303340339  0.2309383938052318 0.714092978138881 -0.2036113182046372  0.1975535218752708 0.6794042289099913 0.05518288617085648  0.3761572698058325 0.4709053903224183 -0.110071861452686  0 0.5090940372412278 -0.5349460340386839  0 0.5350603504932784 -0.8430433168771743  0 0.6738578937333988 -0.737915259701458  0.164109593248377 0.5761575785324918 -0.5890928788615022  0.2475029747273103 -0.4561046932550408 0.8800394901604827  0.3694925429576245 -0.5958501646405832 0.7791131291684588  0.4406799393760092 -0.3650559370457628 0.6810505410128649  0 0.4382264083498228 0.5937380410910144  0 0.7379152597014565 0.6738578937334002  0.1559289910125653 0.445628518864029 0.6984925326213108  0.2324810536730123 0.5213808955010337 0.5258435644279391  0.3555983309770547 0.656027019032849 0.3461651671211329  0.2458237569105728 0.8801511092168622 0.4561636277282752  0.1607954010233367 0.6785216544507058 0.4667873694261923  0.3826204414382912 0.7779301383454942 0.5949541429760784  1.52119605566691 0.1993844535737337 -0.3296462252473032  1.414311204796628 0.3898129177969151 -0.2057175795712648  1.35043553368913 0.31412477587753 -0.3988690910712985  1.281185985486842 0.1662780899176228 -0.1943758563769023  1.099075518775129 0.05947806630170303 0.3306302206363526  0.3679939443262019 0.3447617450768622 0.6523888179221276  0.4109508094888962 0.2773549013757027 0.3912230928899285  0.1373126243972625 0.5009352089527304 -0.4461785342859961  0.2664596187693265 0.6010832976391717 -0.4365657049749609  0.2179946197840175 0.4409807484602174 -0.2220003033063632  0.2617145123926756 0.3390154592910617 -0.3562749789872797  0.5824068775984312 -0.3170408450840759 0.3306350426033773  0.7199893230774794 -0.3705530655917506 0.2326552719422485  0.8358295522502738 -0.2669244509736641 0.3143056243869983  0.5587150980897445 0.6294294572528504 -0.01623015267248071  0.753690685110203 0.6532057608559532 -0.2369277096202369  0.7001301874755437 0.7550693058622343 -0.0524082716182921  0.6800782824703502 0.4417054734682031 -0.04452076045795449  0.4884308328800496 -0.9272425338669441 -0.2789182923255702  0.3906764030666174 -0.9712790424584049 -0.1262145572896986  0.6009334315497298 -0.9480231963115218 -0.09890104373476166  0.420071318585673 -0.7193185330298141 -0.02275610742170561  1.385707654592962 0.3976065221960926 -0.5961074699430042  1.219420193990472 0.4625196146528674 -0.3667717582939762  1.149364473949646 0.3130412125134983 -0.4806343490178561  1.195708172099174 -0.7474690340482983 -0.2799311705246049  1.219932523946796 -0.5119522484128803 -0.1401161375153302  0 0.4628593543202276 0.8855632312882982  0.3015827308425723 0.3699196515636318 0.916118113296736  0.2831250486531117 0.5320147666868361 0.8321945108773773  0.3825795555914422 -0.6690296309761865 -0.2952055242879837  0.4043090205097222 0.4000926521875504 0.2655017005394236  0.5978414449389082 0.3237928842626442 0.3209363851519929  0.2645148779899891 -0.338943586656435 0.3561994752880429  0.4219521826235639 -0.4004970037301178 0.2625370852546315  0.2094134450411068 -0.427547835839946 0.2479337980438358  0.1857857161792982 0.4082826524643675 -0.7114865320202091  0.4350093809141001 -0.08779074384838936 -0.7057378089671015  0.621
[...]
<PointData  Vectors="state-0"> 
<DataArray  type="Float64"  Name="state-0"  NumberOfComponents="3" format="ascii">1.9965332010861905e-01 6.8765619656662710e-02 3.6612613450328450e-02  1.4440786458964575e-01 5.3012227579847755e-02 3.8464985810394363e-02  -1.4105730973136993e-02 -2.4419295064219906e-01 -4.5185501344030689e-02  1.6826073579574624e-01 5.8470680675085998e-02 5.4743280444354558e-02  3.7282144017886987e-02 -9.4034224060185773e-02 7.8792801260058332e-02  1.9998245146353393e-02 -1.7179472236892174e-02 1.9099192456234410e-01  -5.4791840801076911e-03 2.2762511564369029e-03 1.7065784933535835e-01  -5.2707193293325188e-03 1.6217192417173804e-02 1.4780449876185828e-01  9.3359890035428550e-02 4.4849383712504222e-02 1.3818338125444571e-01  1.3861681706317605e-01 9.4965544403172453e-02 1.7868426680706827e-02  7.6473510776261619e-02 1.7566970226587663e-02 1.6204402754465191e-01  9.3841764976578410e-02 -1.5076263483286407e-02 1.4833484192367682e-01  -1.2722970704002376e-02 -1.5269069969401017e-01 -1.5433247106985376e-01  1.7712906754413316e-01 4.1027647813824127e-02 8.2580995274337501e-02  -1.4167645903535321e-02 -9.7665141641180356e-02 -1.9039777216180429e-01  3.4370017221490427e-03 -1.3992143057528983e-01 -1.1720700388120024e-01  0.0000000000000000e+00 -1.8655580980567507e-01 -1.0534199732774877e-02  0.0000000000000000e+00 -1.2514784800192402e-01 2.7315065384117813e-02  0.0000000000000000e+00 -1.1991298613809095e-01 -1.0790283823841141e-02  1.9411083321808083e-02 -1.3311590752487329e-01 -4.2901052337500512e-03  0.0000000000000000e+00 -7.5174936836740888e-03 1.0447025828248040e-01  1.9108484674228425e-02 1.2404408105563904e-01 1.0655790667582297e-01  1.3102390784529216e-02 -7.5543478644064854e-02 1.1583421025895223e-01  2.2461866959663759e-02 1.4597996490151502e-01 7.9202556764899790e-02  2.0240779679615092e-01 -4.9505422013916618e-02 -2.7894407924533033e-03  1.2726372446259765e-01 1.3916309137022841e-02 -6.3588708303399258e-02  1.6046372832690800e-01 4.9701461098907093e-02 1.8035332126331845e-03  1.4700819254094460e-01 4.3673190778755637e-02 4.7517061325253865e-02  1.1559209165256797e-01 -1.0591976770816504e-01 2.4560928817643740e-02  1.7030583176463601e-01 -4.9249790436025696e-02 7.6172304457061676e-02  1.6148447883967740e-01 -7.5863972746673086e-02 4.0383469425267000e-02  9.3692141051329211e-02 -1.2917558077811825e-01 -7.9669584936120544e-02  1.1719122004489492e-01 3.6901753628056838e-02 4.4625312698325169e-02  1.1673683308865106e-01 -1.2402989778249574e-02 4.2655042335127208e-02  1.7001949533770794e-01 -5.9605730913604639e-02 8.6728266504682676e-03  1.4011818724570671e-01 -3.2508026148857408e-02 2.3016147104440211e-02  9.7578938956522407e-02 9.7217753926562137e-02 -8.2892493291690569e-03  1.0120721167018983e-01 1.2081131184713255e-01 8.7867290748760624e-02  7.0278017167332771e-02 1.3809622017083659e-01 7.3709740947354468e-02  1.6258766074804340e-01 5.0980217488669120e-02 -6.6124204051119198e-02  8.6752938198409624e-02 -1.3358201060473404e-01 2.3423296092997946e-02  1.0656744202624792e-01 -9.7233482510439992e-02 9.8918004973094859e-02  1.5173830916954718e-02 -6.1103957714325113e-02 -1.2646634128049587e-02  9.0620692477743237e-02 8.2508115631716016e-03 -1.0581730160927366e-01  1.4493276044759248e-01 -2.7154256958811948e-02 -7.1856958748508629e-02  6.7388260425541330e-02 8.2113543531943375e-02 -1.4673487757930698e-01  9.3549176808158635e-02 -3.7193999413994656e-02 -1.0614920973573169e-01  0.0000000000000000e+00 -2.7768334320407283e-02 -1.7390512888678525e-01  1.9293161810866599e-02 -1.2465652591121992e-02 -1.2344550451037808e-01  1.5896367930896663e-02 3.5816160395607574e-02 -1.3174950626141485e-01  2.6005286660668932e-02 1.1382169630559049e-02 -1.8168179840965190e-01  1.4145547743830528e-01 5.0950480646116273e-03 -7.1865128871241149e-02  1.5726526712769431e-01 -2.1770088060522448e-02 -8.6119464746065799e-02  8.3457340971495292e-02 1.1844889539075172e-01 -1.0404987332010994e-01  6.4783282037521150e-02 1.4915506529313147e-01 -6.4314878530429775e-02  1.3236910569364510e-01 5.8195818551815624e-02 8.4328590631995243e-02  1.9789203653822610e-01 -7.1961341458716722e-03 -4.6561087781432961e-02  5.6845894062255369e-02 7.7048736574421975e-02 9.6680908813848623e-02  6.7412797302313920e-02 1.0820061938218277e-01 2.7135438230058800e-02  1.2329472318956086e-01 1.0678925146241863e-01 8.7731243526598824e-03  2.2450060845539682e-01 4.6517942357716989e-03 5.8643963810230897e-02  1.7205705446481293e-01 -6.1718103525481773e-02 2.3465033041694144e-02  1.3255529580906145e-01 -8.6880769653718742e-02 -5.4545997849127961e-02  1.9056984970505864e-01 -8.8322167159860712e-03 5.3293804768308174e-02  0.0000000000000000e+00 -2.3249754114212290e-01 2.2283322180870237e-03  0.0000000000000000e+00 -2.3204856719138034e-01 4.2632834095369034e-02  2.2711711927256937e-03 -1.7519529031134104e-01 8.5437033804467084e-04  2.7034871516144997e-02 -1.6480922670441955e-01 -4.1430221309866420e-02  2.9567756731633220e-02 -3.7388718414523743e-02 1.1232725108878065e-01  4.4184271468704676e-02 1.5196435860736757e-02 1.1173393000710440e-01  1.0306206642456284e-02 -8.4002126125477944e-02 1.5948921383970133e-01  5.3454508727096235e-02 -2.9569972167268071e-02 -1.1458276888032548e-01  2.6284198340782414e-02 -1.1777620422161746e-01 -1.1941238625916356e-01  2.1807992051652014e-02 7.3505688573590675e-02 -1.7389066267168665e-01  6.4833837696139554e-02 -2.0290744815768685e-02 1.2238095871505962e-01  2.7462161981289850e-02 4.3813510737005434e-03 1.6413165954616618e-01  1.2590326407913880e-02 -1.2476432177739069e-01 7.2557074092182372e-02  4.3498235994052753e-02 -1.8649949145523165e-01 -5.5650758316772360e-02  8.4792495784205127e-02 -5.6469720133992755e-02 1.1340328706270604e-01  1.0694363994783813e-01 -6.7759824388143611e-02 1.0819940779707879e-01  5.3986939925973011e-02 -1.8265029882858971e-01 2.7709778965147938e-02  -1.7197589763036605e-02 -1.6206937880148353e-01 -3.9425936834111788e-02  -2.5671433022046650e-02 -2.1619237317656440e-01 3.7752000473332543e-03  1.6189619759023535e-01 7.9663426570258475e-02 4.0918714023262394e-02  1.1899243360094683e-01 -1.2275554667795985e-01 2.4309377625965013e-02  5.7000578966629120e-02 -1.2027261000725048e-01 -4.9566005327859389e-02  7.3743061215781613e-03 -7.4427574526777687e-02 -1.5202641988797698e-02  -8.8118915239787498e-03 2.3728784808414521e-01 -1.0940830892337315e-01  1.1583408792056621e-01 2.0750044070873311e-01 3.5789129374556258e-03  1.4443502903068178e-01 6.5238852605832938e-03 5.3155190698732029e-02  6.3938429746059691e-02 1.6730082144757824e-01 -1.0277731474188240e-01  1.4713468738730029e-01 8.9511894324812130e-02 -1.9091536946044121e-02  1.4982712008832483e-01 6.9527021783342940e-02 -2.0921617379554218e-02  1.1759077209143212e-01 5.9415351745025366e-02 1.1029448622202506e-01  -2.9895728145741154e-03 -2.2111971583897622e-02 6.9615574983426076e-02  -1.1611007158431337e-02 -7.2628380880714202e-02 6.9755374434538164e-02  1.1607746913804906e-01 9.5574752571834981e-02 5.3599733336005817e-02  0.0000000000000000e+00 -4.4973221187236387e-02 -1.0791315225569166e-01  1.7294813342595214e-01 4.7618048582374443e-03 -2.9160245677420319e-02  1.0076101787198889e-01 -8.9009492448903951e-02 -5.1489746128327740e-02  1.7561162025866172e-02 7.6189521435993349e-02 -9.8465585266987801e-02  -4.9944844977878071e-03 6.5760531776499945e-02 -8.3973853050242686e-02  1.6315514391558006e-01 4.8135071348029579e-02 9.5031382481607765e-02  4.5886627476193296e-03 -1.2001438255606996e-01 -5.4135255418838464e-02  5.8681513605317679e-03 -7.8568405782773215e-02 -2.8143994778523358e-03  2.1678735444671263e-02 -8.3476884955053871e-02 -5.9977729005504715e-02  1.4490690406075421e-01 5.3494466210849259e-02 8.3298456312298264e-02  -9.2181596937457692e-03 -9.6567100422690066e-02 2.0423168611896133e-02  1.3856813151630643e-01 6.1070828855116548e-02 8.7097759089837204e-02  -1.8601252884562020e-02 -1.1395721375848530e-01 3.7626074491393546e-02  -3.6277773334751379e-02 -1.6875461397257280e-01 2.2890184692836879e-02  -1.5541024245996106e-02 -9.9382552642485439e-02 -1.0511360792502258e-01  -1.3317622604342546e-02 -8.4741151979378870e-02 -8.1603056062061419e-02  1.0131368605703432e-01 -1.9738965548943303e-03 1.1096546068679052e-01  1.4984075672704269e-02 1.7065100261215213e-01 -1.3573614779520210e-02  2.8981549940335832e-02 9.1809554230879706e-02 -6.9776585197198385e-02  1.8851901063491033e-02 1.1527697952701864e-01 2.6028798855370527e-02  3.2498959151591421e-02 1.7493240692541417e-01 -2.5903439223884793e-02  0.0000000000000000e+00 6.4680249964909162e-02 -9.3064733127319638e-02  0.0000000000000000e+00 -1.9674983457199444e-01 -1.4367261680887422e-01  0.0000000000000000e+00 -1.6721316671118816e-01 -1.8370432460264863e-01  2.4717221266771994e-02 -4.6419411817210599e-02 -1.5383464669017446e-01  -1.0028207424372044e-02 9.2376869751544091e-02 1.2020332547383969e-01  -8.8121312181184720e-03 4.3555105319039174e-02 1.1082435707511316e-01  7.1393272178025699e-02 4.6776806551202095e-02 1.2925831048679653e-01  0.0000000000000000e+00 5.3217511698463060e-02 9.1977188162827336e-02  0.0000000000000000e+00 1.7487742773712514e-01 -1.4552423151340785e-01  2.2426533131854567e-02 1.6323612895531567e-01 -7.0435037738319963e-03  3.0061620227956113e-02 9.7978004754906464e-02 4.8568529346897829e-02  4.5418283496264492e-02 1.0894263244798434e-01 -2.4279232726799518e-03  -5.4925135107688093e-03 1.1751685119205713e-01 -1.0675836533644381e-01  1.7549832029299099e-02 1.4890956732566607e-01 -6.7151047850015438e-02  1.0488415295657983e-03 9.8615027996674737e-02 -5.5770174341086123e-02  1.9838205572111151e-01 1.8020059513062278e-02 5.8712351816119009e-02  1.5785972369756682e-01 -2.4716322065689227e-02 9.8076069494479291e-04  1.9902397070505082e-01 -2.4652107036641176e-02 2.8666650328321785e-02  1.4997775725074583e-01 3.3728137190360746e-02 -6.2782858906690858e-02  1.2598327800359485e-01 5.9127307627430449e-04 1.2271274574679809e-01  5.5181197269976924e-02 9.6390292074699083e-02 6.5033797348074601e-02  3.1876021266505336e-02 8.5514842494115464e-02 1.6001574236212107e-01  1.5655153029837790e-02 1.1252141895986360e-01 -6.2216878069306779e-02  3.8852592714812173e-02 5.0150961068036758e-02 -1.0407216147790392e-01  1.5799097041452128e-02 1.5556805818143948e-01 -7.6635195635653464e-02  2.3996031331719000e-02 1.2750569568935741e-01 -1.2095850655237837e-01  4.8091094380578382e-02 -1.4899415027921581e-01 1.1706481362596628e-01  6.7584182986184238e-02 -1.6110406713749137e-01 6.8845173718141459e-02  8.7096015774966160e-02 -1.2572482705351831e-01 1.0829254811350741e-01  5.4131984658073028e-02 1.1388209266028078e-01 -2.2546544125131195e-02  1.2059745302865035e-01 2.8826343121437739e-02 -8.6527840819368373e-02  1.2664634026493637e-01 5.4693247641485573e-02 -8.5648454316417585e-02  6.1240115137723296e-02 1.6371218403982671e-01 9.3532096884029556e-03  2.5470973391181562e-03 -8.1747832625249914e-02 5.9168864793707941e-02  1.3183787701784779e-03 -6.8344590422080173e-02 9.3273923334636202e-02  2.0294369742378418e-03 -6.6831844588056966e-02 3.3871318403118432e-02  5.0842967199778190e-02 -1.1795451601568741e-01 6.3226848262889407e-02  -3.2152546245806927e-02 1.7114562652749629e-01 3.1571283457218817e-02  1.9292445431885169e-01 -3.8043483270084145e-02 -6.4552742327955324e-03  1.6564666496405089e-01 -3.9652447176616652e-02 -3.3021345094489785e-02  -1.1590320281761074e-03 -4.5855737055623420e-03 -1.3559333313281660e-01  1.4778027804713076e-01 -3.4109764798365208e-02 8.0312814801096435e-02  0.0000000000000000e+00 2.0655519347261583e-01 -7.3181852350755389e-02  -8.3990080265532469e-03 1.2936699397228024e-01 1.3248323422350798e-02  -1.1582255730758674e-02 1.3834856202494797e-01 -2.3075994591920224e-02  5.3970121178085098e-02 -1.3291295708080014e-01 2.0633460910921365e-02  2.8595481365437856e-02 1.3317655805108530e-01 1.1651559220849740e-01  5.2548318388025414e-02 9.7180740817476532e-02 1.3896520874809504e-01  1.2455684407280159e-02 -1.4229968321990644e-01 1.2341742499440489e-01  2.8519159105945265e-02 -1.7443732518644148e-01 8.6212551756013944e-02  1.0711921174122094e-02 -1.6260954524984378e-01 8.4411030335687962e-02  3.0958884511086412e-02 -9.1084540467840480e-02 -1.3767327465777088e-01  6.1749880601028026e-02 -6.6934093130010308e-02 -9.9480818114203992e-02  1.1318938479553320e-01 -1.1708831014381531e-01 2.4162091964757149e-02  1.2355407071128251e-01 -7.0671937261894774e-02 -6.1239244250848937e-02  5.2800238599102524e-02 -1.9987804426520497e-02 -1.7875856834642459e-01  1.6082313120131067e-01 -1.5140839457543872e-02 -4.7909536977139046e-02  -3.1583315101942296e-02 1.0092880850457080e-01 1.8074822362750870e-01  1.8676210570111137e-02 -7.2431218211080312e-02 -1.8674463900697526e-02  1.6988870589817417e-02 -7.0571796650460400e-02 -5.5036607037250371e-02  1.4834927612117915e-02 -6.8122358363341753e-02 1.6391120913868166e-03  1.5138405067936228e-01 -2.4276898320339552e-02 1.0840718324327782e-01  9.4322126376436458e-02 1.0206810660658386e-01 -5.7103013756359185e-02  2.5368738790456178e-02 -1.8004493180244324e-01 2.7918980281323003e-02  -2.8849193753100752e-03 -1.5487256954034195e-01 6.1364354203282082e-02  -7.6551062383615406e-03 -1.3752423520351639e-01 2.4757666463398616e-02  1.0035677476953758e-03 -1.1063820007730985e-01 3.0804973864183953e-02  -2.1046563207708060e-02 -3.9958255546385955e-02 1.5787501764350811e-01  -5.5724115849757512e-02 -2.8758381025301646e-02 2.1524464173151789e-01  5.4526205662355859e-02 1.0682765558575948e-02 -1.1791394128485183e-01  1.2240262238424586e-01 5.7947878645356110e-02 -6.7339034428024497e-02  9.7993500955415647e-02 1.3972700497232621e-01 -1.2478718004818925e-02  2.3319602395301665e-02 -1.9105046077033180e-01 1.6617155864174112e-02  4.8234936844501947e-02 1.4525109096843641e-01 -9.8120213144216512e-02  -3.5587064473259905e-02 -2.1907359012478012e-01 -8.8094960759623808e-02  0.0000000000000000e+00 -7.9782770915095100e-02 -1.6230514307390800e-01  0.0000000000000000e+00 -8.3446176368778699e-02 -8.9380649209818627e-02  2.7934874651308669e-02 -1.1576728101166357e-01 -6.1126499280813672e-02  1.4972172058912121e-02 -1.0478287112817980e-01 -1.5743585007112243e-01  2.5119611662165420e-02 -1.3531571270637119e-01 1.2108254778590069e-01  0.0000000000000000e+00 9.7419904898654361e-02 -1.4984296118537757e-01  0.0000000000000000e+00 -8.6729379452821914e-02 2.3270582198715831e-01  -6.8917800522553165e-03 -1.0009884603026502e-01 1.0636032704503354e-01  -9.7247838175867768e-03 -7.4382899380422876e-02 1.5471975940334790e-01  6.9743375939974747e-02 7.2560788187295208e-02 -8.4657899965164485e-02  3.5147586444976835e-02 1.1413259358865803e-01 -4.9606510821297897e-02  8.1871724035375796e-03 -1.1857613004497804e-02 -1.0857110778371930e-01  1.1246969201462793e-02 1.3697230127174947e-01 1.0286886130557574e-01  1.2162438703738175e-02 8.7945452544114372e-02 9.7283869637628792e-02  1.6271372468552358e-03 -3.5179369640456330e-03 -5.9954148398433889e-02  -5.2489368877251218e-03 5.9617653624358904e-02 -4.8814941430351144e-02  1.2331412736755762e-01 -4.4457195305694260e-02 -8.2426087388645611e-02  4.5522590466735342e-04 2.0007770102530346e-02 -6.3809293604865772e-02  0.0000000000000000e+00 -9.4573040876638394e-03 -1.1276217337954618e-01  2.2496071846214299e-02 1.1270126564447307e-01 -4.6904898659985060e-02  -4.6993952455799447e-03 -2.3924787271924899e-02 1.0062927860150227e-01  -2.4775700523810367e-03 -4.9490774534274896e-02 5.4343998727606570e-02  1.0094844150513542e-01 -1.4574133770593398e-03 1.2388445475665254e-01  8.2905180235720091e-03 -5.7280681921313692e-02 -2.4358813235893652e-02  1.3748225618487755e-02 -5.8638676021666655e-02 9.1762751799576397e-04  1.2385813551383404e-01 -7.4528354211485168e-02 7.9937780430475808e-02  9.5250485545330069e-02 1.0722747736953755e-01 4.9139416430780146e-02  3.8131456206809577e-02 -2.5826742282978592e-02 1.8251397329416108e-01  8.3444602989085834e-02 6.7598508489396913e-02 9.6953161521937670e-02  7.7649123808939041e-02 2.3412831042076806e-02 1.1204938359760389e-01  5.8377888763612877e-02 -3.4673974545939228e-02 1.7258073119866477e-01  -6.7296511703800006e-03 2.0311091709636634e-02 7.0465393748085151e-02  -4.8569654626136457e-03 -2.7399615305075009e-02 1.5110594700060007e-01  5.9174930970091262e-04 -2.1945951450528606e-02 1.0348300387919158e-01  1.5185456857353702e-01 3.3848793421977795e-02 -5.9511902122065204e-02  1.2253778947458732e-01 6.5276374756074881e-02 7.9635706387384736e-02  1.3494474134729512e-01 -6.2341151796250424e-03 -1.5114727192034474e-01  1.0250664533424605e-01 3.4310391806848455e-04 6.0247807125817492e-03  1.1719256762953985e-01 -8.9906693489066145e-02 -8.6608557089704621e-02  -6.1008723827307024e-03 -8.4717840055038296e-02 9.3171505033594129e-02  -2.2218482025871462e-02 -1.2646901198211666e-01 8.1617243543837648e-02  7.5048754706239992e-02 6.5707096981331439e-02 -8.8837828673284949e-02  2.2658987921250467e-01 3.8887823654558139e-02 8.6470131704977651e-02  -3.3396070321859872e-02 1.7897107660755823e-01 -8.3360103378172859e-03  -4.1617196410938376e-02 1.9128398026962268e-01 -4.7461864874246293e-02  1.8238608801489278e-01 -5.0810057753648080e-02 1.5917759106743760e-02  2.2967607138297189e-01 6.6033471433535801e-02 5.0482650218378049e-02  -9.5680354703586865e-02 2.9262512054480848e-02 -2.5691710757180108e-01  -3.9269853628708752e-02 -1.6771577577639363e-02 -2.4765018468369873e-01  -3.9279220437357647e-02 1.2925174104604656e-02 -2.1034178270391152e-01  -6.2633327819789988e-02 -6.1180675975080791e-02 2.4502352728998020e-01  1.4320124106412699e-01 -1.8586743346714844e-02 -9.3508624458890337e-03  -5.0298987126139769e-02 3.3175319401672086e-02 2.5828563764914053e-01  1.6627981871202799e-01 2.3825913674089445e-02 -6.4361831132415028e-03  0.0000000000000000e+00 3.3276673134256980e-02 -1.0556796540872128e-01  0.0000000000000000e+00 -2.1190556696948137e-01 -8.0758525162329398e-02  0.0000000000000000e+00 -2.1167239602460189e-01 -1.1930712068421157e-01  4.0498694354769126e-02 4.0664455582749795e-02 1.7836951067779291e-01  5.4949420296133068e-02 2.8938204028882249e-02 1.7258800169620300e-01  6.2075273388499256e-03 -2.4013538359217282e-02 -1.7146147636081766e-01  0.0000000000000000e+00 -5.9303895146117253e-02 -2.3312234309900295e-01  -1.6510142009012588e-05 1.4930957388463310e-02 -1.4350021014253744e-01  4.5060375532097477e-02 5.5289526984793259e-02 1.0000189394680539e-01  1.9739148892263568e-03 6.0146842961133651e-02 5.3968437526350818e-02  1.1587775155154052e-01 -1.8394603470055066e-03 -1.0858708509058589e-01  2.0620095912599701e-01 -2.6260991328784414e-02 3.3846035921361602e-02  1.3344031137323736e-01 -4.5267778038815066e-03 -8.2451262848881060e-02  7.5636124376886986e-03 7.1644097680411925e-02 4.5241455531997182e-02  -1.3891596510513178e-04 5.8381672894269508e-02 -2.0051214525508593e-02  1.3732214282050181e-02 4.8417431525300605e-02 -1.1603674591555851e-02  0.0000000000000000e+00 -5.0612365066501359e-02 1.0055613222225479e-01  2.6492137110560823e-02 -1.4503078041288692e-01 -8.5481620935196789e-02  -1.9832996108928268e-02 5.2381001263998419e-03 1.1937705651573367e-01  -8.9773568625562839e-03 4.0668501490442682e-02 7.8115915832233096e-02  -8.0092723000011971e-03 4.5184352436147351e-02 1.0830268663102764e-01  1.6700700970303772e-01 7.2209770547819394e-03 -6.2217777568087482e-02  -4.2760964312509225e-02 1.5065429639950784e-01 -1.1512368313974443e-01  -6.6182169034108701e-02 2.2839286629108743e-01 -1.1330857266432516e-01  1.7843437511315646e-01 -2.8674380254883482e-02 5.1003420141710692e-02  1.2856893220495552e-01 -4.1924080950559502e-02 8.3894713979082935e-02  1.1577459209797021e-01 -1.2737603412805684e-01 -2.2256163005825266e-02  9.2694366250486160e-02 -1.5374189614218839e-01 -2.4264226626915054e-02  -3.3749659340807155e-02 6.2837735273190892e-02 1.6755384190652850e-01  -9.5717363111229806e-03 7.6151178190572211e-02 1.2049798510354524e-01  1.4160005495498567e-02 3.1776071175571644e-02 1.2777115993864091e-01  5.7251891734819184e-02 9.3220708646153019e-02 -4.4683021908055995e-02  4.2480768697581904e-02 1.