<?xml version="1.0"?>
<VTKFile type="UnstructuredGrid"  version="0.1"  >
<UnstructuredGrid>
<Piece  NumberOfPoints="562" NumberOfCells="2167">
<Points>
<DataArray  type="Float64"  NumberOfComponents="3"  format="ascii">1.368988780486386 -0.3330614804626422 0.3812091262482924  1.457971735921389 -0.1022985678317614 0.3848351862271924  1.610427907917255 -0.2543337204802068 0.5283220094529932  1.517018421924314 -0.2975870322441377 0.2373535790744415  0.2896649584838891 -0.6565336317944969 0.3023309575633568  0.1476062501325057 -0.7596307241376263 0.3283146094026839  0.2103887490757956 -0.916837934661527 0.3815037813901131  0.2689768990101102 -0.8331508488021908 0.5326326663736717  0.9156822098122387 0.1728678968738864 0.3547279359267569  0.9955038627747099 0.1533306194452782 0.6087026577562188  0.7890673547573852 0.1092600253823605 0.4080960165386402  0.9145731457487908 0.02582743292350364 0.3935106194697764  1.555529446910997 -0.5403673213763167 0.3112575692626874  1.348103006996482 -0.462351674863219 0.1749673809371412  1.400987129938871 -0.69735066861689 0.1355899121124687  1.379596868832529 -0.6110590497219095 0.3769781373204191  0 -0.4990262892337586 -0.03118914320056031  0 -0.7290746446371459 0.09885523113658878  0 -0.717672921293292 -0.1906601281732726  0.1968984162950436 -0.7040029471989069 -0.07369861360184334  0 -0.04626762634821223 0.7372759069896635  0.1747349115361219 -0.1710428392996126 0.8075209349320995  0.1736439618246974 -0.1962945897661325 0.6287261280994423  0.1554956487469918 0.01915161770726388 0.8205218561784148  1.468118261285947 0.4388895086210086 0.1612631929613552  1.314649208445651 0.4683262063503433 0.04261620133015324  1.344984587319364 0.2109573947886681 -0.02958325590058262  1.313873754896346 0.1816089619152257 0.1471166805105471  0.8054134969450556 -0.533449770498696 -0.3926139635083312  1.023959850515393 -0.6045695018332022 -0.2205179401063885  1.05215698719499 -0.4565551953633328 -0.3958586963103667  0.8906623628738856 -0.3599786025326254 -0.1746980748537972  1.697689701537584 -0.1214082871572868 0.1246812640999428  1.488464593112258 -0.01630978270888243 0.02506236650239546  1.430421324362075 -0.1422530463333789 0.0006438225420573964  1.443375672974065 -0.09622504486493764 0.09622504486493764  0.7321510998862281 0.5624492232270197 0.3646846381716035  0.9239002426432321 0.3480246702761787 0.1811782883685  0.7490852309803118 0.4095827285081708 0.1339143819021366  0.9285858048943815 0.6335571890886311 0.2734941480292951  0.5604589232358378 -0.5698201261526246 -0.445758982164192  0.6089524280343109 -0.7218043571025563 -0.2041610728153083  0.6992001125134369 -0.7541456942161303 -0.5502812588103354  0.6274724868209266 0.4419785778654846 -0.5250198354585243  0.8756473641379455 0.3468289673768704 -0.5629197215258924  0.67802877664681 0.1808686458692327 -0.4046923641025996  0.5747192133026287 0.2418214339106003 -0.6661394725993455  0 -0.05589422902377143 -0.4966102514551253  0.2056253598613783 -0.1053038618535594 -0.6787933827793691  0.1556038154442484 0.06282062757538044 -0.6543309982444776  0.2724660772724383 0.01271359915602951 -0.4910330623919412  0.9865780311818615 0.5347283976096202 -0.3161606543928742  0.8204442367782485 0.5439521650280197 -0.46835255331516  0.8298883357700151 0.2747691377838339 -0.3083728461704535  0.6862435664967209 0.3812464258315117 -0.228747855498907  1.177314513331318 0.2155896063490769 0.2140622858922932  1.267656842582551 0.5005914574877968 0.2726043363799996  0.5728594645233351 0.3135209056411565 0.5449126792957779  0.5106867385450642 0.5036153923917321 0.4965240972019211  0.7698782860739618 0.3545773464498151 0.5878168661371025  1.257062485956698 -0.4638359972454 -0.342956295722521  1.188194666541641 -0.2467563208328611 -0.4932880249876783  1.208812547869822 -0.2451038235802088 -0.1523648506518715  1.405543018003129 -0.3155823461555193 -0.3144549970062264  0 -0.1321637113190494 -0.9912279018522304  0 -0.3021402933326705 -0.9528694918273042  0.2240193167333228 -0.2163747517189394 -0.968604487305365  0.1588608620926228 -0.2417277328284706 -0.7863213987186402  0.234290723282165 -0.4158101367292431 0.6068160964348613  0.336171426774712 -0.1961275532959101 0.7074104293225126  0.2157572393158068 -0.1977293037481581 0.4531390059122784  0.3402759051114709 0.1630546516396377 -0.7060477597699854  0.1632882031789302 0.196780254177258 -0.7862562160633888  0.231029003331308 0.1880338449615072 -0.4559977997563014  0.4728863797400071 -0.4933154510626057 0.5304985100819815  0.187854599331762 -0.6281900592232541 0.4987253373128265  0.1504625078742185 -0.4631455710889698 0.4631699097377626  0.5053019851007623 -0.4639188236666469 -0.07333804255252858  0.5526823878021767 -0.6967835074188571 0.215903246388164  0.6541336653852354 -0.7283429953560903 0.01682686734495902  0.6106765895285129 -0.435572044232048 0.1342135044502026  1.287900750276439 -0.4687881345125656 0.5967914885117886  1.473254424964647 -0.2014289120459823 0.6388974134251688  1.252201609832917 -0.1994817872140489 0.4924873900544187  0.6933873765617349 -0.4558378836670255 -0.5791550267835122  0.4866071064794875 -0.3834461891956515 -0.6005511129213282  0.6019697230687768 -0.6242818145703938 -0.7168889634012832  1.902820210771035 -0.06211515387208391 -0.2891430129447606  1.990339083299429 0.001064238785733084 -0.07652382797423923  1.724478368935762 -0.003788849933621816 -0.09935623650575776  1.954875178599839 -0.1249628659413422 -0.1581861500923273  0.9809979007020542 0.3576737082789349 0.535667969994543  1.241639713161487 0.2329691467692865 0.4709274800730408  1.03542332926206 0.2261833785676189 0.277619257236822  0.844968024044826 0.2915591042812161 0.85479271387891  0.9643254804467414 0.1075471943400586 0.8675308624173648  0.7528609021968682 0.08903098632416863 0.6868333670574929  0 -0.2092988896484911 -0.7083966808149078  1.404920008928814 0.3372989555460403 0.316767914436192  1.004219460199691 -0.2737979137568052 -0.4388250598374921  1.180873089276474 -0.4621305164745083 -0.6560168552866585  1.053305258761655 -0.3284868324358208 -0.7801286865200052  0.9712979390145692 -0.5110446369696806 0.4327235545709323  1.146293004560022 -0.6668284527145589 0.469882080380535  0.8963334118470608 -0.7310840957918627 0.5111265403121084  1.08206659020357 -0.7596894074461439 0.3528958016823166  0.8015085840467554 -0.3389768733860401 0.6685991538206634  0.925104953366791 -0.4648901631989753 0.7519021955945258  0.9984935472219151 -0.3065996581170283 0.5499211474208088  1.002288197777214 -0.2792071613298824 0.8153893475416765  1.215846416214816 -0.2524645935340363 0.7497327115816464  0.3024217308764339 0.4448958319181652 -0.8808605755070491  0.390139049844082 0.2930948946191007 -0.9351790364388617  0.7478274009820868 -0.4286314222864522 0.5038265581755443  0.2148561413125 0.491329266113953 -0.05528733303340339  0.2309383938052318 0.714092978138881 -0.2036113182046372  0.1975535218752708 0.6794042289099913 0.05518288617085648  0.3761572698058325 0.4709053903224183 -0.110071861452686  0 0.5090940372412278 -0.5349460340386839  0 0.5350603504932784 -0.8430433168771743  0 0.6738578937333988 -0.737915259701458  0.164109593248377 0.5761575785324918 -0.5890928788615022  0.2475029747273103 -0.4561046932550408 0.8800394901604827  0.3694925429576245 -0.5958501646405832 0.7791131291684588  0.4406799393760092 -0.3650559370457628 0.6810505410128649  0 0.4382264083498228 0.5937380410910144  0 0.7379152597014565 0.6738578937334002  0.1559289910125653 0.445628518864029 0.6984925326213108  0.2324810536730123 0.5213808955010337 0.5258435644279391  0.3555983309770547 0.656027019032849 0.3461651671211329  0.2458237569105728 0.8801511092168622 0.4561636277282752  0.1607954010233367 0.6785216544507058 0.4667873694261923  0.3826204414382912 0.7779301383454942 0.5949541429760784  1.52119605566691 0.1993844535737337 -0.3296462252473032  1.414311204796628 0.3898129177969151 -0.2057175795712648  1.35043553368913 0.31412477587753 -0.3988690910712985  1.281185985486842 0.1662780899176228 -0.1943758563769023  1.099075518775129 0.05947806630170303 0.3306302206363526  0.3679939443262019 0.3447617450768622 0.6523888179221276  0.4109508094888962 0.2773549013757027 0.3912230928899285  0.1373126243972625 0.5009352089527304 -0.4461785342859961  0.2664596187693265 0.6010832976391717 -0.4365657049749609  0.2179946197840175 0.4409807484602174 -0.2220003033063632  0.2617145123926756 0.3390154592910617 -0.3562749789872797  0.5824068775984312 -0.3170408450840759 0.3306350426033773  0.7199893230774794 -0.3705530655917506 0.2326552719422485  0.8358295522502738 -0.2669244509736641 0.3143056243869983  0.5587150980897445 0.6294294572528504 -0.01623015267248071  0.753690685110203 0.6532057608559532 -0.2369277096202369  0.7001301874755437 0.7550693058622343 -0.0524082716182921  0.6800782824703502 0.4417054734682031 -0.04452076045795449  0.4884308328800496 -0.9272425338669441 -0.2789182923255702  0.3906764030666174 -0.9712790424584049 -0.1262145572896986  0.6009334315497298 -0.9480231963115218 -0.09890104373476166  0.420071318585673 -0.7193185330298141 -0.02275610742170561  1.385707654592962 0.3976065221960926 -0.5961074699430042  1.219420193990472 0.4625196146528674 -0.3667717582939762  1.149364473949646 0.3130412125134983 -0.4806343490178561  1.195708172099174 -0.7474690340482983 -0.2799311705246049  1.219932523946796 -0.5119522484128803 -0.1401161375153302  0 0.4628593543202276 0.8855632312882982  0.3015827308425723 0.3699196515636318 0.916118113296736  0.2831250486531117 0.5320147666868361 0.8321945108773773  0.3825795555914422 -0.6690296309761865 -0.2952055242879837  0.4043090205097222 0.4000926521875504 0.2655017005394236  0.5978414449389082 0.3237928842626442 0.3209363851519929  0.2645148779899891 -0.338943586656435 0.3561994752880429  0.4219521826235639 -0.4004970037301178 0.2625370852546315  0.2094134450411068 -0.427547835839946 0.2479337980438358  0.1857857161792982 0.4082826524643675 -0.7114865320202091  0.4350093809141001 -0.08779074384838936 -0.7057378089671015  0.621
[...]
<PointData  Vectors="state-0"> 
<DataArray  type="Float64"  Name="state-0"  NumberOfComponents="3" format="ascii">2.7466243535418409e-02 3.1706433783213639e-02 9.7210508203333990e-02  3.1746592570753289e-02 9.6237102575637608e-03 8.1020737013170335e-02  2.6382576104941796e-02 -2.3482518824196265e-03 3.8349356843421264e-02  3.4506725723062417e-02 -2.2830036475449997e-02 8.4077645426448314e-02  1.2915533989465926e-02 -1.3380835843773620e-01 -4.4454592604813159e-02  5.4390442534714319e-03 -1.2084868003307793e-01 -8.7936872767415773e-03  1.0939231677497517e-02 -7.8277290380006734e-02 1.7833889912262112e-02  1.0938915388871855e-02 -7.1053946416193670e-02 3.3253913060008022e-02  7.3707992384532600e-02 -4.8240781235288112e-02 1.6628399119373419e-01  2.6658324837453330e-02 4.3566105433257514e-02 7.9903692245215707e-02  6.2131682580592165e-02 -8.1136870382521778e-02 1.6779367943639201e-01  7.6540635421088535e-02 -1.0967621058982802e-01 1.3576706248331555e-01  2.2837686168974872e-02 -2.2227797158016947e-02 2.4685365330978419e-02  2.9411117916966881e-02 -3.5464165622811766e-02 7.6762364720703802e-02  2.7170460779900246e-02 -3.8561139604104018e-02 1.6148869695012478e-02  2.3944892963747445e-02 -2.6735565941967215e-02 2.9433549580807118e-02  0.0000000000000000e+00 -1.6915105310308465e-01 -1.0136725286515066e-01  0.0000000000000000e+00 -1.2411513838412559e-01 -1.0893103354084092e-01  0.0000000000000000e+00 -7.1518047416180300e-02 -1.4405181217944130e-01  6.1183017264446523e-03 -1.0763890670016987e-01 -1.2227798742145561e-01  0.0000000000000000e+00 -1.3305872293036503e-01 9.1250233553961294e-02  9.0908309218951395e-03 -8.3366677513595014e-02 8.3749040118951831e-02  5.1604506568496454e-03 -1.6511047206329726e-01 7.7024679599071527e-02  1.0122128691477520e-02 -6.4016341175769334e-02 1.0037717268293052e-01  4.2018574999080842e-02 5.8657631177080713e-02 -5.1038128967501026e-02  3.8439288171816653e-02 9.5960624837531941e-02 -6.2044141951025263e-03  1.5767324448295400e-01 1.0041331687872566e-01 7.2680778226625622e-02  1.4858513624499115e-01 1.7429588126668453e-02 1.1800438828539192e-01  3.1392621260299222e-02 -6.2657722271049140e-02 -7.0131289897297416e-02  3.2119122490485562e-02 -7.3910488903166982e-02 1.3564976826307485e-02  3.9451334304604811e-02 -6.5575879154791419e-02 -4.5168278153913763e-02  8.2511806302149035e-02 -6.1289206442987666e-02 -1.6529987947948124e-01  1.0429258653459747e-01 -3.2637596950771980e-02 4.9467211694622842e-02  2.4762201591069927e-01 -1.8029662017435864e-02 4.8735501036282033e-02  2.3848707197380026e-01 -4.2886029684438207e-02 -7.3443269431049091e-02  2.1671219519508272e-01 -6.4162347400002900e-02 -5.9429723337981874e-03  1.8262905738340662e-02 6.3095362866637944e-02 9.0826306729767894e-02  7.5297163007952722e-02 6.5474915051648513e-02 1.7111226857231299e-01  5.0285418032339629e-02 9.7426820760869615e-02 1.6825726746212932e-01  3.0881097069453991e-02 8.1245982633013719e-02 -1.7008438632658671e-03  1.9953582788448405e-02 -6.0093646411587383e-02 -8.6320633648697576e-02  2.2659879880123850e-02 -7.9938493261840299e-02 -1.8784214602559298e-02  1.7929232747654011e-02 -4.3978194474929178e-02 -3.3910750241554238e-02  1.7657427185649777e-02 1.0319308853521955e-01 -4.1616333733905525e-02  3.0568311297241690e-02 5.3065075805080117e-02 -6.4247241892652768e-02  4.9781637708482852e-02 1.7625586171125876e-01 -8.9056607845250171e-02  2.5083978967462062e-02 8.0543794758108425e-02 -7.7552366382491411e-02  0.0000000000000000e+00 6.6816130887826425e-02 -1.7881555852393624e-01  6.2364983413007802e-03 1.0415504378154898e-01 -1.2927045160136474e-01  6.8382799940092187e-03 1.4236293388388344e-01 -1.0921585114876911e-01  1.7456333838848516e-02 1.1029436041665197e-01 -1.6396935925578454e-01  3.3174279485829773e-02 7.6589423178932747e-02 -4.2628435377601165e-02  3.6334190815670256e-02 5.3637293410449337e-02 -6.7869952060416031e-02  6.3078655783659093e-02 1.9001370388492964e-01 -2.2391029926833048e-02  4.7845701547650665e-02 1.9065421122383885e-01 3.3485018308039773e-02  1.1590921151106227e-01 -1.9285980443208932e-03 1.4340106095600247e-01  4.4152145333221933e-02 9.5334285430404855e-02 -4.2567373396469516e-02  2.0103666981757726e-02 -2.0730172370245787e-02 1.5220350894502882e-01  1.2476987458648055e-02 3.1446095820807589e-02 1.1581508934292316e-01  2.7181112234030032e-02 4.5085423122917412e-02 8.3249315800931992e-02  4.5345137282921097e-02 -7.5707696958324550e-02 2.3551195043603802e-02  4.2083478719935327e-02 -4.3749855950034069e-02 -6.1785521768973027e-02  1.3355678475421179e-01 -2.0426593118996979e-02 -1.4007237156326843e-01  4.9575437767762597e-02 -6.0928161535547296e-02 -3.2003812649163910e-02  0.0000000000000000e+00 3.5266015927589199e-03 -5.7988568431774475e-02  0.0000000000000000e+00 -1.2121317554320372e-02 -6.7077519796655452e-02  1.1663269019918947e-02 -8.8308214505668156e-03 -6.5620478451633560e-02  9.5891991868407075e-03 3.9974762476537279e-02 -1.2091729527759179e-01  1.1974900421461617e-02 -1.3907810126025835e-01 2.8976356811747712e-02  1.2732486912854812e-02 -1.1061501898270976e-01 7.1999485874116323e-02  5.3160582312156649e-03 -1.6287023598544839e-01 1.0867798371642128e-01  1.8303286034687158e-02 1.0543495490775123e-01 -7.9111436675101940e-02  9.2348383213097830e-03 8.5149706520988494e-02 -7.3964853358476468e-02  1.4195447601114066e-02 1.6361751837564578e-01 -1.2190993874684264e-01  1.9226435862140182e-02 -1.1116103211706597e-01 3.3336395884816010e-02  7.1191095377561020e-03 -1.2948397328256403e-01 1.1412807511656783e-02  6.0831998597935567e-03 -1.8227956451815044e-01 -6.6802523107044867e-03  3.5090626198541190e-02 -1.4380595860868545e-01 -1.5140726055041265e-01  2.1427169156089901e-02 -9.9655445416669416e-02 -4.7878124635612569e-03  2.2848371762868122e-02 -8.5291601198948769e-02 -2.1667100925686356e-03  4.7511269718749131e-02 -1.8652763354906765e-01 -7.5405857495754416e-02  2.1185259721441939e-02 -2.6943354292727303e-02 3.9693689768090686e-02  2.4968762357708889e-02 -1.2023432416624297e-03 3.9356058581319672e-02  2.5995875910745113e-02 2.7869422002611194e-02 8.8052698819798783e-02  2.7122703503957898e-02 -5.8750474852587033e-02 -6.1941531810580173e-02  1.3799407394035965e-02 -8.4216434185610690e-03 -1.2205302927365246e-01  2.2051507161801393e-02 -4.3890338782393706e-02 -5.7718256269067555e-02  3.6844330695200385e-02 -2.1919557300408721e-02 -2.8589246253928058e-02  4.8594263743717274e-02 -9.8632072310992601e-03 -1.7264482400110106e-02  1.0499596864622794e-01 3.8388003521960652e-02 -3.7252149051896465e-02  3.1196722817169547e-02 -2.8508501250281731e-02 3.4250540660238039e-03  2.9714935234190526e-02 7.0819694181913515e-02 5.1597862701766938e-02  2.7250236341389112e-02 6.6912815490830183e-02 5.4334487576574601e-02  9.4547915451126369e-02 -1.2667389077474736e-02 1.6272575980574724e-01  1.6997003766889330e-02 1.8090752248846050e-02 5.2854117004971952e-02  2.3436304263160908e-02 1.0724632208045006e-02 6.4461398272369033e-02  2.5229400772486681e-02 8.6733702124125941e-03 9.1126047080530417e-02  0.0000000000000000e+00 8.8100474317527933e-02 -1.3611738955403038e-01  4.0192395178328379e-02 7.5602399400513012e-02 1.4590089576937242e-02  4.6830825951780501e-02 1.2127455512241949e-02 -1.2729346308175238e-01  2.3394572264180520e-02 -2.5876732850035319e-02 -2.4857016487260002e-02  2.2659073657870208e-02 -1.8749749237760953e-02 -4.2390333607796871e-02  2.6005049259697866e-02 -1.3153263011457242e-02 8.9590468817026120e-02  2.5137659627950708e-02 -5.0458626977495320e-02 4.6303284215969909e-02  1.3796999715924459e-02 -5.3023405227463460e-02 3.6699827934195475e-02  1.9251565045993513e-02 -4.6178490406543288e-02 2.5987646519478731e-02  2.7173252786947745e-02 -1.0848261155196203e-02 9.0570709772742272e-02  2.2542529151798611e-02 -3.8529419101162483e-02 6.3274803389687523e-02  2.4816061529498799e-02 -1.9107460333578404e-02 8.3931981041514947e-02  2.1525526981718078e-02 -1.6063913317702950e-02 6.0753385734513887e-02  2.3424874989502437e-02 -1.1823381070395420e-02 5.4833884033262219e-02  4.4749031086516308e-03 3.6752972599429112e-02 -5.7881592994089043e-02  9.8738565313325078e-03 2.9481869960984924e-02 -6.4163467403322141e-02  2.7610783261504783e-02 -9.1769651968480401e-02 5.6749820288291938e-02  9.2221981044512281e-03 1.7410373902245652e-01 8.6673615290517647e-02  7.9070733798123766e-03 1.2543396197816914e-01 7.1272328414802091e-02  6.6565861806113635e-03 1.0234293413040021e-01 1.3745446671752273e-01  2.0377011430448295e-02 1.8601133131543629e-01 7.7936963225592348e-02  0.0000000000000000e+00 1.6977715550713257e-01 1.0413560016451899e-02  0.0000000000000000e+00 5.1507958531067544e-02 -6.3578220310544817e-02  0.0000000000000000e+00 6.2043171054782027e-02 -5.5530616437980802e-02  5.3553597793065729e-03 1.1828791102366311e-01 -2.7433699381332936e-02  3.9823607900514547e-03 -4.4208750503930389e-02 6.4046065474409788e-02  1.2391567316217501e-02 -5.2235857877092146e-02 5.5918567267920202e-02  1.9096525316072564e-02 -8.6153999193628053e-02 7.0250657864172089e-02  0.0000000000000000e+00 -4.4224547577087187e-02 1.6330768461064513e-01  0.0000000000000000e+00 4.0831754456360600e-02 5.2257906669248830e-02  6.8051755916998767e-03 -1.4518955005606913e-02 1.3228043312890664e-01  1.0302350782562837e-02 -1.3324043481755812e-04 1.3976221830425803e-01  1.1099656820573876e-02 4.9326186038842937e-02 1.1680866348984453e-01  1.1305980923630218e-02 6.2433560846060519e-02 4.1312059430313047e-02  3.6631573849329729e-03 4.6739114974570291e-02 1.2153993690841096e-01  9.2605915861889848e-03 4.9359148097896828e-02 4.9639825581661065e-02  6.2882258797782198e-02 3.3954565819770558e-03 -5.9792957676207986e-02  5.0014490871785416e-02 5.1844247808640463e-02 -6.6444245010178218e-02  5.5087440912002142e-02 -9.0726800163466129e-03 -7.5942478457483628e-02  1.3480191994304513e-01 1.3390111665572368e-01 -3.8392829604555921e-03  1.0522644136244863e-01 -8.7372624163654850e-02 1.2748933828283948e-01  1.1848006430230693e-02 -1.9187791312468255e-02 1.2761407590882501e-01  2.0391451922640486e-02 -4.8463497123747701e-03 2.0529431972925460e-01  3.8041810497742475e-03 1.8011621233005104e-01 2.4252842164337221e-02  1.2685717907596204e-02 1.3373353527504825e-01 1.5236848843729873e-02  9.8756506515062081e-03 1.9281876129687256e-01 1.8660631275048502e-02  1.4711096904144672e-02 1.9505650220032669e-01 -4.2669034201427848e-02  3.9653623762017899e-02 -2.0195419382675989e-01 3.0369319187289377e-02  5.8976191042438557e-02 -1.9270825997065341e-01 -2.8438603778681504e-02  7.4661806400954850e-02 -1.8336246543420234e-01 2.5772478558419794e-02  1.6921153798816212e-02 1.2083947107003845e-01 9.7614143993677557e-02  2.5878689252720986e-02 8.8464487403747682e-02 -1.2639064077247658e-02  3.2343059578030721e-02 9.4216599433532097e-02 -9.8789637779242694e-04  4.5129310623941640e-02 1.6164498122697510e-01 1.1455434811290430e-01  1.7974686327399861e-02 -6.9627257625069022e-02 -2.4986982167800882e-02  1.0098049032957659e-02 -6.6586922293337750e-02 -1.4409043806677803e-02  1.7503126887621043e-02 -6.9276221883625519e-02 -9.2003252120589785e-03  1.3509448055370575e-02 -1.0625696417962953e-01 -7.0884829575593333e-02  3.3906171922640026e-02 1.7781528350436008e-02 -4.4698935345333236e-02  4.4445920642991819e-02 6.0919463733912337e-03 -8.5713624285257972e-02  4.1020317252550835e-02 2.6010378852639428e-02 -6.9781647107477085e-02  2.6525589236390878e-02 -4.3055657865514102e-02 -1.4431879548325834e-02  3.8018893686144098e-02 -6.7268292307448865e-02 -3.1594169623640573e-03  0.0000000000000000e+00 1.7921544939907181e-02 6.5211470269328331e-02  1.1603098315991947e-02 2.0464326289138635e-02 7.7687398878670738e-02  8.3188310603577661e-03 2.9347932005682344e-02 6.2771853926075635e-02  1.5154720182970776e-02 -7.0557214206889193e-02 -1.0280162971234108e-01  2.0820894117209238e-02 6.6538816086720395e-02 1.9117216445609023e-01  3.8614127618512420e-02 1.8784000841052896e-02 1.9748070754524458e-01  7.5222983205900599e-03 -1.9909852053938928e-01 4.4179322386779393e-02  2.3928074388161791e-02 -2.0824124354891432e-01 -7.9090531968122636e-03  7.1903287548575473e-03 -1.9487483439253600e-01 -6.7451429579515115e-03  6.6298483894255177e-03 8.2708702363452555e-02 -4.7428862713158437e-02  1.7123151483888672e-02 6.7462673597860082e-02 -1.1654234887780707e-01  1.8149648991846099e-02 -4.3333783425646921e-02 -3.0661275589866383e-02  3.0972742374785606e-02 1.6164334623061948e-02 -1.0439441784097185e-01  4.2209833520122489e-02 9.0794181236534446e-02 -1.8409022693537813e-01  3.6886850169437303e-02 6.3810561986051839e-02 -5.8900567712551970e-02  3.4106297860844126e-02 4.2811573584657626e-02 -1.3329150723832367e-02  1.9250881780568590e-02 -5.0890084544731123e-02 3.2351721559379432e-02  2.2926274400219510e-02 -5.4843350703189762e-02 1.9652289859430579e-02  1.7269875771556354e-02 -6.2371846638510371e-02 1.9167185449337858e-02  3.0427784632100739e-02 -6.9447643676082915e-02 5.4534141837484382e-02  1.6699214808251251e-02 7.4050978211044866e-02 5.5949835141588695e-02  1.0025368892469664e-02 -9.4112613241002022e-03 -1.0979367807012078e-01  9.8636465669504243e-03 -4.1481929658470557e-02 -6.3912286774906180e-02  1.0371358161599092e-02 -3.3464778990664690e-02 -6.6777565785204121e-02  1.2200967600388005e-02 -3.9189698414581538e-02 -5.4937658916602516e-02  3.0917782110664330e-02 4.6988424080808722e-02 2.2619628995975576e-02  2.5534567692418297e-02 4.4751589111599564e-02 6.2361765400349434e-03  1.4972085239314363e-02 1.2429626221766649e-01 -3.7709779889202114e-02  2.5941250746183652e-02 9.2904826910982563e-02 1.7643117575250725e-02  7.3243952581592595e-02 1.6063608162355922e-01 9.5870291348358616e-02  1.7481456777636833e-02 -1.8550951043224642e-01 -8.6284408735580256e-02  3.4050485659509952e-02 2.0026357937549008e-01 -3.1403946650650277e-03  2.8478711713537479e-02 -2.5197257037538140e-02 3.9648771776325656e-02  0.0000000000000000e+00 4.6698524448399040e-03 -1.9568699937554782e-01  0.0000000000000000e+00 4.2993282629428607e-02 -1.5819912541217204e-01  4.4688567467652601e-03 2.5031667295256698e-02 -1.2869473909741808e-01  8.4560766585671313e-03 -1.5736185872604929e-02 -1.9944718364474465e-01  7.7865538453337777e-03 -8.5878458298279572e-02 -9.9697368210598825e-02  0.0000000000000000e+00 1.7002618171830403e-01 -9.7594538599241415e-02  0.0000000000000000e+00 -7.4717329616817929e-02 -2.4235631576441676e-02  1.2483235929269304e-02 -7.5481295456517744e-02 -2.9694337174983827e-02  8.0820129884737121e-03 -6.3016671078835559e-02 -1.8343642861024582e-02  1.8064864940860563e-02 1.1230088523186614e-01 4.1592512223708501e-02  8.8257048038437227e-03 1.5801247196526835e-01 5.8153874097902764e-02  6.8839568189024277e-03 5.3198039124459084e-02 -1.8254775808953776e-02  5.9537118834896985e-03 7.7493151429652254e-02 1.8057153848002375e-01  5.3959330789043790e-03 2.9609780168217789e-02 1.8201536074112681e-01  2.1530372719552958e-02 8.5623919636484726e-03 -7.2275712049739857e-02  2.5572394234708338e-02 4.8256194232159603e-04 -5.6478016026591159e-02  3.1106292920757860e-02 5.2625366266124948e-02 -8.8317183371022165e-02  1.6681881628501653e-02 -1.0125147913804460e-02 -6.0658969300875651e-02  0.0000000000000000e+00 1.3090841242245557e-01 -9.6601074360595673e-02  6.4458385544460643e-03 5.5878326443532314e-02 1.1300018176832444e-01  1.5675161707665208e-02 -6.6422351365744675e-02 4.3971207114122661e-02  2.0172416131080975e-02 -5.4766464869691320e-02 4.8274500169921679e-02  2.3956830790815876e-02 -7.4758813538897601e-02 3.9484488665636995e-02  2.1714501427149941e-02 -6.0302949986431022e-02 -2.0809884517569873e-02  1.8055086203064903e-02 -6.6370887221112521e-02 2.2148353097594577e-03  2.9765478421924195e-02 -8.0362408867917887e-02 -1.3496601258401644e-02  2.2959473198879879e-02 -2.9763557755406247e-03 9.8794904099819628e-02  2.9753839926252218e-02 -1.2461404359605713e-01 1.6137053155663103e-01  2.2579463612913860e-02 -5.3984857648029100e-02 1.0256350443868381e-01  1.6375619939041304e-02 -8.4630564578530104e-02 7.4251567707220759e-02  4.5805707418550598e-02 -1.3318335757257591e-01 1.4899249418661209e-01  1.5860922903562703e-02 -2.5867814445538144e-02 6.7514765341913696e-02  1.1098960863564860e-02 -7.6778401854687053e-02 7.8636169541596943e-03  1.2167990933226841e-02 -7.2937843768786800e-02 2.1950975158571674e-02  3.0136034992137094e-02 8.5510479386870578e-02 -9.8158796779619448e-03  2.5356050533789445e-02 -2.4893463200901411e-02 8.5278024716608211e-02  5.0785611149130903e-02 -3.4477599539680374e-02 3.1601705154110885e-02  4.6630881905356157e-02 -1.1245571106727265e-02 -1.3152171783640131e-02  1.0523442394910443e-01 -3.1275393396790500e-03 -1.5382387327453412e-01  2.2091369266311375e-02 2.6879822958397519e-02 4.1588815783771292e-02  2.1375819321307561e-02 1.0716519478517586e-02 4.8872520807367578e-02  2.2072733848587992e-02 1.4040753557565153e-01 4.6013778895328209e-03  5.9632559507457467e-02 -6.3341440002679078e-02 -4.4738840087985211e-02  3.0220911569889854e-02 -1.8006407943379416e-03 -4.0005822835495308e-02  2.7051334634889870e-02 1.2193219669759522e-03 -3.6169775224062048e-02  4.9813422821856954e-02 -1.8033068653481820e-02 -6.4657945789514545e-02  3.6005205112304851e-02 -4.6617202663661178e-02 8.0450224161618844e-02  1.8205371338805003e-02 -3.3060051256711326e-02 -1.5995965539152387e-02  3.1383996143597430e-02 -3.5817562678746098e-02 -3.6264264126839993e-03  2.0218788312209687e-02 -2.5395728852016710e-02 -1.2284080275772307e-02  2.6491976282857863e-02 3.8025521305219911e-02 -7.2573936403040509e-04  4.5690751382044044e-02 7.0083369816220820e-02 -2.3365066049577721e-02  3.6127843950144074e-02 3.9042969975250377e-02 -2.5180611433042923e-03  5.4086546592796748e-02 5.7014973174572540e-02 4.5828436154841473e-02  0.0000000000000000e+00 1.5908175925045867e-01 -4.1195988594359620e-02  0.0000000000000000e+00 2.9034711378055911e-02 -6.7093814624062095e-02  0.0000000000000000e+00 4.0750339559319129e-02 -7.1733066065502130e-02  2.9303791093316305e-02 -6.0633720885078540e-02 1.9570231870337992e-01  4.2163728996906846e-02 -7.1598826351980505e-02 1.8670776515932197e-01  8.7130990404719142e-03 6.9361295710745341e-02 -1.6239690605748536e-02  0.0000000000000000e+00 5.5559171181015256e-02 -8.5543869775359469e-03  8.9769014957317185e-03 7.0980515335925629e-02 -4.4716948564929564e-03  1.3645953516269207e-02 -7.7536019659054684e-02 1.0943915606707456e-01  1.5780940685888908e-02 -5.1641590864765462e-03 7.0682071261835913e-02  1.0232876955746369e-01 1.0834140788421848e-01 -1.0149820196624755e-01  4.8353041916035344e-02 -6.4215638493372057e-02 -4.5518059594366403e-02  1.2526247701099752e-01 1.0362465578017004e-01 -8.8877142427051414e-02  2.4346888101487808e-02 5.1669497835884884e-02 -2.7311946354874168e-02  1.9331279265644971e-02 6.7816098695747368e-02 -9.2393506914210336e-03  2.5547129936177752e-02 5.5560439206328367e-02 -4.2316246134124283e-02  0.0000000000000000e+00 -1.6343262284258286e-01 4.1414110277101915e-02  1.0063354983488286e-02 7.4459152269365905e-02 -1.0639217060398505e-01  2.0520479530729097e-02 5.2988655333502471e-02 2.8263467050195525e-02  1.8928045681978530e-02 5.8540070045057284e-02 1.9179083372790652e-02  1.9595461992058028e-02 5.1703259310702354e-02 -5.7827450505912315e-03  3.6180567152672670e-02 7.3853060533103851e-02 -5.1673618414035283e-02  2.7567256510835147e-02 -1.6338282407806225e-02 -3.9003866435784913e-02  3.2321634494214317e-02 -1.3510412320130788e-02 -3.9804444960028107e-02  4.8249745514461068e-02 -6.1746102456860970e-02 -4.8880682120095442e-02  3.6232116316733114e-02 -8.8754551447121743e-02 1.1303686331746551e-02  1.0416260890042953e-01 -9.1843803227749196e-02 -1.2138840734508215e-01  8.3367028132848353e-02 -1.2608833770053160e-01 -1.2468619873241643e-01  3.0718861423627342e-02 5.6909477876708262e-02 -7.9555740329392277e-03  2.6076356620093402e-02 5.5565406366557421e-02 -1.8270898721842375e-02  3.4675023515461129e-03 -5.9059385395982954e-02 1.6756272500592334e-01  1.4105431521921452e-02 8.0362509115890920e-02 9.2140214679996377e-02  3.0672748037063265e-02 1.3844600917809580e-01 1.48449050078888