<?xml version="1.0"?>
<VTKFile type="UnstructuredGrid"  version="0.1"  >
<UnstructuredGrid>
<Piece  NumberOfPoints="562" NumberOfCells="2167">
<Points>
<DataArray  type="Float64"  NumberOfComponents="3"  format="ascii">1.368988780486386 -0.3330614804626422 0.3812091262482924  1.457971735921389 -0.1022985678317614 0.3848351862271924  1.610427907917255 -0.2543337204802068 0.5283220094529932  1.517018421924314 -0.2975870322441377 0.2373535790744415  0.2896649584838891 -0.6565336317944969 0.3023309575633568  0.1476062501325057 -0.7596307241376263 0.3283146094026839  0.2103887490757956 -0.916837934661527 0.3815037813901131  0.2689768990101102 -0.8331508488021908 0.5326326663736717  0.9156822098122387 0.1728678968738864 0.3547279359267569  0.9955038627747099 0.1533306194452782 0.6087026577562188  0.7890673547573852 0.1092600253823605 0.4080960165386402  0.9145731457487908 0.02582743292350364 0.3935106194697764  1.555529446910997 -0.5403673213763167 0.3112575692626874  1.348103006996482 -0.462351674863219 0.1749673809371412  1.400987129938871 -0.69735066861689 0.1355899121124687  1.379596868832529 -0.6110590497219095 0.3769781373204191  0 -0.4990262892337586 -0.03118914320056031  0 -0.7290746446371459 0.09885523113658878  0 -0.717672921293292 -0.1906601281732726  0.1968984162950436 -0.7040029471989069 -0.07369861360184334  0 -0.04626762634821223 0.7372759069896635  0.1747349115361219 -0.1710428392996126 0.8075209349320995  0.1736439618246974 -0.1962945897661325 0.6287261280994423  0.1554956487469918 0.01915161770726388 0.8205218561784148  1.468118261285947 0.4388895086210086 0.1612631929613552  1.314649208445651 0.4683262063503433 0.04261620133015324  1.344984587319364 0.2109573947886681 -0.02958325590058262  1.313873754896346 0.1816089619152257 0.1471166805105471  0.8054134969450556 -0.533449770498696 -0.3926139635083312  1.023959850515393 -0.6045695018332022 -0.2205179401063885  1.05215698719499 -0.4565551953633328 -0.3958586963103667  0.8906623628738856 -0.3599786025326254 -0.1746980748537972  1.697689701537584 -0.1214082871572868 0.1246812640999428  1.488464593112258 -0.01630978270888243 0.02506236650239546  1.430421324362075 -0.1422530463333789 0.0006438225420573964  1.443375672974065 -0.09622504486493764 0.09622504486493764  0.7321510998862281 0.5624492232270197 0.3646846381716035  0.9239002426432321 0.3480246702761787 0.1811782883685  0.7490852309803118 0.4095827285081708 0.1339143819021366  0.9285858048943815 0.6335571890886311 0.2734941480292951  0.5604589232358378 -0.5698201261526246 -0.445758982164192  0.6089524280343109 -0.7218043571025563 -0.2041610728153083  0.6992001125134369 -0.7541456942161303 -0.5502812588103354  0.6274724868209266 0.4419785778654846 -0.5250198354585243  0.8756473641379455 0.3468289673768704 -0.5629197215258924  0.67802877664681 0.1808686458692327 -0.4046923641025996  0.5747192133026287 0.2418214339106003 -0.6661394725993455  0 -0.05589422902377143 -0.4966102514551253  0.2056253598613783 -0.1053038618535594 -0.6787933827793691  0.1556038154442484 0.06282062757538044 -0.6543309982444776  0.2724660772724383 0.01271359915602951 -0.4910330623919412  0.9865780311818615 0.5347283976096202 -0.3161606543928742  0.8204442367782485 0.5439521650280197 -0.46835255331516  0.8298883357700151 0.2747691377838339 -0.3083728461704535  0.6862435664967209 0.3812464258315117 -0.228747855498907  1.177314513331318 0.2155896063490769 0.2140622858922932  1.267656842582551 0.5005914574877968 0.2726043363799996  0.5728594645233351 0.3135209056411565 0.5449126792957779  0.5106867385450642 0.5036153923917321 0.4965240972019211  0.7698782860739618 0.3545773464498151 0.5878168661371025  1.257062485956698 -0.4638359972454 -0.342956295722521  1.188194666541641 -0.2467563208328611 -0.4932880249876783  1.208812547869822 -0.2451038235802088 -0.1523648506518715  1.405543018003129 -0.3155823461555193 -0.3144549970062264  0 -0.1321637113190494 -0.9912279018522304  0 -0.3021402933326705 -0.9528694918273042  0.2240193167333228 -0.2163747517189394 -0.968604487305365  0.1588608620926228 -0.2417277328284706 -0.7863213987186402  0.234290723282165 -0.4158101367292431 0.6068160964348613  0.336171426774712 -0.1961275532959101 0.7074104293225126  0.2157572393158068 -0.1977293037481581 0.4531390059122784  0.3402759051114709 0.1630546516396377 -0.7060477597699854  0.1632882031789302 0.196780254177258 -0.7862562160633888  0.231029003331308 0.1880338449615072 -0.4559977997563014  0.4728863797400071 -0.4933154510626057 0.5304985100819815  0.187854599331762 -0.6281900592232541 0.4987253373128265  0.1504625078742185 -0.4631455710889698 0.4631699097377626  0.5053019851007623 -0.4639188236666469 -0.07333804255252858  0.5526823878021767 -0.6967835074188571 0.215903246388164  0.6541336653852354 -0.7283429953560903 0.01682686734495902  0.6106765895285129 -0.435572044232048 0.1342135044502026  1.287900750276439 -0.4687881345125656 0.5967914885117886  1.473254424964647 -0.2014289120459823 0.6388974134251688  1.252201609832917 -0.1994817872140489 0.4924873900544187  0.6933873765617349 -0.4558378836670255 -0.5791550267835122  0.4866071064794875 -0.3834461891956515 -0.6005511129213282  0.6019697230687768 -0.6242818145703938 -0.7168889634012832  1.902820210771035 -0.06211515387208391 -0.2891430129447606  1.990339083299429 0.001064238785733084 -0.07652382797423923  1.724478368935762 -0.003788849933621816 -0.09935623650575776  1.954875178599839 -0.1249628659413422 -0.1581861500923273  0.9809979007020542 0.3576737082789349 0.535667969994543  1.241639713161487 0.2329691467692865 0.4709274800730408  1.03542332926206 0.2261833785676189 0.277619257236822  0.844968024044826 0.2915591042812161 0.85479271387891  0.9643254804467414 0.1075471943400586 0.8675308624173648  0.7528609021968682 0.08903098632416863 0.6868333670574929  0 -0.2092988896484911 -0.7083966808149078  1.404920008928814 0.3372989555460403 0.316767914436192  1.004219460199691 -0.2737979137568052 -0.4388250598374921  1.180873089276474 -0.4621305164745083 -0.6560168552866585  1.053305258761655 -0.3284868324358208 -0.7801286865200052  0.9712979390145692 -0.5110446369696806 0.4327235545709323  1.146293004560022 -0.6668284527145589 0.469882080380535  0.8963334118470608 -0.7310840957918627 0.5111265403121084  1.08206659020357 -0.7596894074461439 0.3528958016823166  0.8015085840467554 -0.3389768733860401 0.6685991538206634  0.925104953366791 -0.4648901631989753 0.7519021955945258  0.9984935472219151 -0.3065996581170283 0.5499211474208088  1.002288197777214 -0.2792071613298824 0.8153893475416765  1.215846416214816 -0.2524645935340363 0.7497327115816464  0.3024217308764339 0.4448958319181652 -0.8808605755070491  0.390139049844082 0.2930948946191007 -0.9351790364388617  0.7478274009820868 -0.4286314222864522 0.5038265581755443  0.2148561413125 0.491329266113953 -0.05528733303340339  0.2309383938052318 0.714092978138881 -0.2036113182046372  0.1975535218752708 0.6794042289099913 0.05518288617085648  0.3761572698058325 0.4709053903224183 -0.110071861452686  0 0.5090940372412278 -0.5349460340386839  0 0.5350603504932784 -0.8430433168771743  0 0.6738578937333988 -0.737915259701458  0.164109593248377 0.5761575785324918 -0.5890928788615022  0.2475029747273103 -0.4561046932550408 0.8800394901604827  0.3694925429576245 -0.5958501646405832 0.7791131291684588  0.4406799393760092 -0.3650559370457628 0.6810505410128649  0 0.4382264083498228 0.5937380410910144  0 0.7379152597014565 0.6738578937334002  0.1559289910125653 0.445628518864029 0.6984925326213108  0.2324810536730123 0.5213808955010337 0.5258435644279391  0.3555983309770547 0.656027019032849 0.3461651671211329  0.2458237569105728 0.8801511092168622 0.4561636277282752  0.1607954010233367 0.6785216544507058 0.4667873694261923  0.3826204414382912 0.7779301383454942 0.5949541429760784  1.52119605566691 0.1993844535737337 -0.3296462252473032  1.414311204796628 0.3898129177969151 -0.2057175795712648  1.35043553368913 0.31412477587753 -0.3988690910712985  1.281185985486842 0.1662780899176228 -0.1943758563769023  1.099075518775129 0.05947806630170303 0.3306302206363526  0.3679939443262019 0.3447617450768622 0.6523888179221276  0.4109508094888962 0.2773549013757027 0.3912230928899285  0.1373126243972625 0.5009352089527304 -0.4461785342859961  0.2664596187693265 0.6010832976391717 -0.4365657049749609  0.2179946197840175 0.4409807484602174 -0.2220003033063632  0.2617145123926756 0.3390154592910617 -0.3562749789872797  0.5824068775984312 -0.3170408450840759 0.3306350426033773  0.7199893230774794 -0.3705530655917506 0.2326552719422485  0.8358295522502738 -0.2669244509736641 0.3143056243869983  0.5587150980897445 0.6294294572528504 -0.01623015267248071  0.753690685110203 0.6532057608559532 -0.2369277096202369  0.7001301874755437 0.7550693058622343 -0.0524082716182921  0.6800782824703502 0.4417054734682031 -0.04452076045795449  0.4884308328800496 -0.9272425338669441 -0.2789182923255702  0.3906764030666174 -0.9712790424584049 -0.1262145572896986  0.6009334315497298 -0.9480231963115218 -0.09890104373476166  0.420071318585673 -0.7193185330298141 -0.02275610742170561  1.385707654592962 0.3976065221960926 -0.5961074699430042  1.219420193990472 0.4625196146528674 -0.3667717582939762  1.149364473949646 0.3130412125134983 -0.4806343490178561  1.195708172099174 -0.7474690340482983 -0.2799311705246049  1.219932523946796 -0.5119522484128803 -0.1401161375153302  0 0.4628593543202276 0.8855632312882982  0.3015827308425723 0.3699196515636318 0.916118113296736  0.2831250486531117 0.5320147666868361 0.8321945108773773  0.3825795555914422 -0.6690296309761865 -0.2952055242879837  0.4043090205097222 0.4000926521875504 0.2655017005394236  0.5978414449389082 0.3237928842626442 0.3209363851519929  0.2645148779899891 -0.338943586656435 0.3561994752880429  0.4219521826235639 -0.4004970037301178 0.2625370852546315  0.2094134450411068 -0.427547835839946 0.2479337980438358  0.1857857161792982 0.4082826524643675 -0.7114865320202091  0.4350093809141001 -0.08779074384838936 -0.7057378089671015  0.621
[...]
<PointData  Vectors="state-0"> 
<DataArray  type="Float64"  Name="state-0"  NumberOfComponents="3" format="ascii">2.3384777859906367e-02 4.3246887317311671e-03 2.7452625737874201e-02  2.0355247873506118e-02 5.1638834506084258e-03 3.3956241168757076e-02  1.5423967666377381e-02 -6.9686801578737806e-03 2.1921929776117521e-02  2.3920333584331373e-02 -1.2110525285081285e-02 3.3251371524806651e-02  5.0366816091137832e-03 -5.6332873383694110e-02 1.6155155772882030e-02  3.1046667573967034e-03 -5.3865325362039099e-02 1.5130244292308000e-02  5.3651123372219327e-03 -3.8619079728222136e-02 1.2339951511834434e-02  5.4189496354265284e-03 -3.6452113113774741e-02 2.0368226373313137e-02  3.2319815293361441e-02 2.8838632741704919e-02 7.7142004004314396e-02  1.9520670636831570e-02 1.9815867218331295e-02 3.6303214021768462e-02  2.6425772749640423e-02 1.6807172031206064e-02 8.7548623696500127e-02  3.2675311822208744e-02 -4.7700068157810228e-03 8.1969035182673122e-02  1.5382637962497196e-02 -1.5242878393334198e-02 1.2141207161731305e-02  2.3600980486040687e-02 -1.8597418057675813e-02 2.8552318622533091e-02  1.6344114230337933e-02 -2.1796793224175635e-02 4.6188755814073187e-03  1.5535589029769386e-02 -1.8702618181534344e-02 1.4899644139139396e-02  0.0000000000000000e+00 -1.0091156375582730e-01 1.2906559158290871e-02  0.0000000000000000e+00 -6.5291626787988014e-02 -1.5626810883539261e-02  0.0000000000000000e+00 -5.4601448334915995e-02 -3.9772660763735986e-02  9.3213453929658888e-04 -6.7660289643314303e-02 -1.9896546997617275e-02  0.0000000000000000e+00 -2.7874988546199162e-02 5.6633712500508804e-02  3.8476037537143468e-03 -2.1552372202317000e-02 5.1233283995871057e-02  4.9525441875939151e-04 -3.3336569819145803e-02 6.6341898791304629e-02  3.4867028298669520e-03 -1.2245947609721565e-02 5.1094457273521181e-02  2.0056313291422680e-02 1.4277926291506687e-02 -7.9461458845433239e-03  2.4201756497596282e-02 4.0775792789605608e-02 -8.8559824776683945e-03  7.9936559874085170e-02 6.5168745407331072e-02 -6.8182530665985403e-04  7.5033082316986272e-02 4.3856418217774411e-02 4.6097619920262893e-02  1.6503268763741221e-02 -3.9473331752513885e-02 -2.4174707653461799e-02  1.8890548252510408e-02 -2.6890458099965660e-02 -6.8235471552110117e-05  2.1402250606099748e-02 -3.8294659667534280e-02 -2.1236256869750472e-02  3.5863830286326288e-02 -7.4111306808298222e-02 -4.6444822069432935e-02  3.8553553079217262e-02 -1.4263741264716094e-02 2.7739687936029735e-02  1.2750246161489703e-01 3.1833863597909629e-03 2.1452641045859089e-02  1.2393152537944455e-01 -5.3678381670155741e-02 -2.5195744365030467e-02  1.0972976212766866e-01 -3.4957269445683690e-02 1.6978359156427394e-02  1.1220098915142151e-02 4.2401321469714467e-02 2.4879983868032789e-02  3.3804913707129833e-02 7.5189263514314070e-02 4.9179457666531520e-02  2.1084695668497151e-02 8.3219562472451020e-02 3.7831565575471654e-02  1.6558342581212103e-02 3.2772072887465302e-02 6.2979224446844178e-03  1.0002218167881024e-02 -4.6794901103040611e-02 -2.8528678343393774e-02  1.0582977060822649e-02 -3.5421997057500910e-02 -4.5964865466923497e-03  1.0378447996859139e-02 -2.8172692489074683e-02 -1.9958820773171744e-02  9.2448541739552897e-03 3.1222704497367849e-02 -3.7147145569812710e-02  1.5958802839147201e-02 2.0220559775607577e-02 -3.6099291088428929e-02  1.9184162109526094e-02 4.2714631321401124e-02 -8.4535893727951297e-02  1.1868106948113561e-02 1.9554024807728068e-02 -4.6866321449498163e-02  0.0000000000000000e+00 -3.1248724022064918e-02 -9.3263604617740303e-02  2.1565264071069217e-03 2.9446598041372243e-03 -6.7619745108908169e-02  2.0607727359042262e-03 1.5384918649515241e-02 -7.0308697647951487e-02  4.4715691641418675e-03 -6.6043174441549014e-03 -9.4307534352400912e-02  1.9370673096299820e-02 3.1821676575146347e-02 -2.5458765325805054e-02  1.6993782884945189e-02 2.5971607823333007e-02 -3.2068917815933441e-02  2.7009058611227949e-02 6.9930211500029163e-02 -6.3523502228020987e-02  1.8314444410903307e-02 7.8368919334056028e-02 -4.0515877507982440e-02  5.5704611393652098e-02 4.2369388785323904e-02 5.8413901159552001e-02  2.5925813849955695e-02 2.4266124908135709e-02 -5.1806965003188214e-03  1.0224524347455641e-02 3.3143691588567240e-02 6.1473989742305883e-02  7.5674189266553109e-03 3.6520446232843125e-02 4.0711464954933850e-02  1.5404869539852281e-02 3.0082053652707080e-02 3.8231519373195945e-02  2.6805761796046906e-02 -2.5271087572113510e-02 -7.3233876898984567e-03  2.1029775867481011e-02 -2.1242801242270206e-02 -3.1175006749628160e-02  6.1673966119134720e-02 -5.4472300673777126e-02 -5.5159193433882182e-02  3.0853118909737246e-02 -2.7453831138498461e-02 -2.3526325940597177e-02  0.0000000000000000e+00 -1.6890465156452858e-03 -3.7237933203799180e-02  0.0000000000000000e+00 -9.7874599318250859e-03 -4.0723742872564646e-02  6.0931009738808455e-03 -5.6522274053516708e-03 -3.5764572385072545e-02  4.0597919947824405e-03 -5.6450543738506206e-03 -6.0143743084944662e-02  3.4555730498330305e-03 -4.3941164577945030e-02 4.1252409910668864e-02  4.0402331820358637e-03 -2.4398558252789471e-02 4.7306823668911438e-02  -1.1844469025873484e-03 -2.8101894203652771e-02 8.9012336097114009e-02  7.6845782620865227e-03 2.0226477809320551e-02 -4.9616682849615762e-02  3.0442791850994579e-03 2.1380131548140020e-02 -4.0709988981490211e-02  4.1015484336293763e-03 2.8396166084079109e-02 -9.7850180342797938e-02  8.2040089610621540e-03 -3.8680503149511339e-02 3.6827943720383817e-02  2.4663285401955197e-03 -5.3145258732297869e-02 2.8888417527783556e-02  8.0170240906622312e-04 -5.9419925763568450e-02 4.4145572188357636e-02  1.2276067767398442e-02 -1.0215548506462807e-01 -1.9282015783750033e-02  1.1423116803571375e-02 -4.2540946981894513e-02 1.3342855550145933e-02  1.2819380297354381e-02 -4.3802718130054617e-02 4.7650939739463062e-03  1.8688027432639611e-02 -9.7307677648067192e-02 2.3528646597855706e-02  1.3650168166616834e-02 -1.4746812162614004e-02 2.0872965460706799e-02  1.5929599643350643e-02 -4.6278495313271592e-03 2.3136056918946008e-02  2.1487491840239164e-02 5.7032238190668008e-03 3.0549879805444762e-02  1.1028046563622206e-02 -3.2619654952663266e-02 -2.6669117283791833e-02  8.0918196096086397e-03 -3.6754069414730452e-02 -4.5675303150725544e-02  1.0444215396099537e-02 -2.5230532780313640e-02 -3.1294802187723382e-02  1.6618968660286323e-02 -1.6633722151628018e-03 -1.1364436872855328e-02  2.3787046867351849e-02 -6.6223992704066788e-04 -1.7486533867657032e-03  4.5171329537982356e-02 2.0857090611217481e-03 -2.0981234324548969e-02  1.8319346860867999e-02 -6.0280872813580138e-03 -3.3247397779847783e-03  1.8831343913178106e-02 2.6024473149858892e-02 2.4536047030495365e-02  2.1830917914529579e-02 2.6369546852878584e-02 2.4974710080705943e-02  4.3866085414350366e-02 4.0107789953533250e-02 6.6541653216442273e-02  9.7134905100256883e-03 1.0255036066050795e-02 2.8173443835747339e-02  1.1428142624808534e-02 4.8317144976991033e-03 3.0798774185594988e-02  1.4702999422249898e-02 1.0370117968403264e-02 4.0674077978032824e-02  0.0000000000000000e+00 5.5356151750638695e-03 -6.6674444305860239e-02  2.6351888310748424e-02 2.5539119735621646e-02 1.5329193860681394e-02  2.2868270364363629e-02 -3.2022020819330213e-02 -5.0973491848117163e-02  1.3120114165241821e-02 -1.5039246091981521e-02 -2.0565196828608877e-02  1.0099494189882846e-02 -9.7032386400327936e-03 -2.1818149454283297e-02  1.6991905416946906e-02 -8.6927464442060811e-03 2.5590458030717404e-02  1.4634352104838650e-02 -2.4031834014008522e-02 1.9970106587663464e-02  9.5695842613959803e-03 -2.3969238993801538e-02 1.7532165506718038e-02  1.2546880383069487e-02 -2.3706650699176754e-02 1.2228280727183957e-02  1.5404380740879013e-02 -1.3184243715455681e-02 3.8448072544660594e-02  1.1342842930943002e-02 -1.5146750400235139e-02 2.7625481099866733e-02  1.7994222490331203e-02 -9.1737341558498012e-03 3.9246983146482992e-02  1.2395751174184465e-02 -8.9997868217733621e-03 3.0103643241453603e-02  1.4197111240783676e-02 -7.6462470496207720e-03 2.9192566435721237e-02  3.1476018807013008e-03 1.6839440386901709e-02 -3.1318028551917662e-02  5.1302384364676212e-03 1.3605782629263860e-02 -3.5505404174397806e-02  1.5588874354271842e-02 -3.1591398667405998e-02 4.4339768101671277e-02  1.7622810896408630e-03 8.9845421669199607e-02 -1.9796447232885678e-02  3.1331530869704769e-03 5.7233416608068098e-02 -1.1708602875744498e-03  2.6555625277861553e-03 6.4339331028650110e-02 1.8956171878456864e-02  6.6024837149851806e-03 9.2332551757252343e-02 -2.4380177580402930e-02  0.0000000000000000e+00 6.2046493831683598e-02 -3.0763511863120131e-02  0.0000000000000000e+00 2.1484812717915608e-02 -3.1033687129986134e-02  0.0000000000000000e+00 3.1212830370412788e-02 -3.2685881905565213e-02  2.4752075072604998e-03 4.7041354657227259e-02 -3.6033574972242161e-02  3.6206109958034560e-03 -2.0030422680358335e-02 3.4444619708271139e-02  5.7143759432765964e-03 -2.5732958141034948e-02 3.1216750534369914e-02  9.4046880679359481e-03 -3.0440206003356247e-02 4.4291999267602723e-02  0.0000000000000000e+00 1.6407400946779314e-02 6.6191597176086081e-02  0.0000000000000000e+00 2.6323931917766032e-02 2.8192375864224326e-02  2.5145873350593023e-03 1.6779847261329837e-02 5.5614827966568296e-02  4.1363357593656412e-03 2.7194957981357095e-02 4.9076164634455188e-02  5.0228721890305484e-03 4.0668912330162135e-02 3.3424976267935676e-02  4.4844449352424830e-03 3.4459953781996872e-02 1.9618496274472652e-02  1.6301209252543509e-03 4.1129732597789695e-02 4.3528449009348338e-02  5.1252806564031292e-03 2.8745743736730427e-02 2.4688572584986818e-02  3.3389353316374465e-02 1.3841742635802019e-02 -2.6924594193147786e-02  2.7924450020850373e-02 2.1562957825678141e-02 -2.3773468222331607e-02  3.0760162928282250e-02 1.1871110538378613e-02 -2.9794275306053390e-02  6.6289635442298225e-02 5.1622967047057162e-02 -4.1407719268311070e-02  4.8348954164187406e-02 9.7034884243706607e-04 7.5568228949384419e-02  6.2099194944905279e-03 1.7358413423652949e-02 5.2389976944941130e-02  6.1573901621570270e-03 5.6091084030363621e-02 8.1257475151087638e-02  1.7844451964369754e-03 6.4434678052223276e-02 -3.3627253133785930e-02  3.9895381746474796e-03 5.0226881309378253e-02 -2.2031162580412138e-02  2.2341482705361183e-03 7.7474839866672085e-02 -5.1033376074018789e-02  4.2983440194317149e-03 6.1229386477107149e-02 -7.2615908065802676e-02  1.4647638934527824e-02 -7.1795212608904244e-02 7.1354257418837663e-02  2.3367167099446463e-02 -8.3809586241826634e-02 4.4107266969602134e-02  3.1066841295983479e-02 -6.5529248466101253e-02 6.2590852619562876e-02  7.8141222119065042e-03 6.7769736356313240e-02 1.8093110274970058e-03  1.1331333282693593e-02 3.5524415857884989e-02 -1.6645187972024428e-02  1.5122987110646318e-02 4.8061348132560473e-02 -4.6735013472835310e-03  1.8001081858495319e-02 9.2550963225683139e-02 -1.3770835999042830e-03  8.8538322776770175e-03 -3.7924409081680988e-02 -1.1716575069874965e-02  6.1277726618292911e-03 -3.9466076935853189e-02 -4.8570202360775682e-03  9.6198716792254488e-03 -3.7463909574923938e-02 -3.8505334692499004e-03  4.2430336954316430e-03 -5.8020449170357091e-02 -3.4277865507973868e-03  1.8458843235060612e-02 1.2560518738439870e-02 -2.1799213556646522e-02  2.6410393457976928e-02 1.3855649683506343e-02 -2.5723327573464405e-02  2.1103192175885962e-02 1.4760902770007196e-02 -3.3647826637820226e-02  1.5474147266529771e-02 -2.4450072470643548e-02 -9.3320813211962179e-03  2.4810583520797611e-02 -3.5985250849319014e-02 2.8228889053418475e-03  0.0000000000000000e+00 1.3747347879248034e-02 3.5423120863237748e-02  5.7204222167338810e-03 1.3109618079087202e-02 3.9856913643645832e-02  4.4661667524680815e-03 1.9099682876518042e-02 3.2792855978094379e-02  5.8079483630349375e-03 -5.2515359305200286e-02 -2.5987330993954779e-02  6.6989097882144463e-03 7.9670408124081868e-02 5.5269413766620326e-02  1.4913034704866783e-02 6.0534158653359899e-02 6.8684986022666220e-02  -2.7461053749805990e-04 -6.3833506614907970e-02 7.4802885301501129e-02  6.8336493377311866e-03 -8.5863164780359116e-02 5.7639178508167042e-02  5.8040576130827693e-04 -7.6031500007879754e-02 5.6027588351519504e-02  3.2026034034892733e-03 2.3862895979850949e-02 -2.7562733017830705e-02  8.7109478806157332e-03 3.7561753090343025e-05 -5.8854971906626377e-02  1.9141646754052208e-03 -4.1229271842703656e-03 1.2552252051138707e-04  1.2834630037020534e-02 -4.4259261790572501e-03 -5.3767955897643091e-02  1.6238722176352135e-02 -1.6812851709336510e-02 -1.0427048599099568e-01  2.2777862747885524e-02 2.7997814358027055e-02 -2.1646467185056324e-02  1.8403946026589783e-02 2.3368226832480622e-02 -3.0319685000600618e-03  1.1454090997354130e-02 -2.5471515464920158e-02 1.3820895713986932e-02  1.3649493847075566e-02 -2.9342623965462559e-02 1.0034930969597971e-02  1.0639770229328967e-02 -3.2470685409310807e-02 9.6386032901477556e-03  1.7585752612854302e-02 -3.4545830548997715e-02 1.1638452929119279e-02  9.3478677217310301e-03 3.9163631800559956e-02 2.1204608747518099e-02  2.6006363110673012e-03 -1.8645978583863975e-02 -4.4889655053998556e-02  4.1707008063835609e-03 -2.3578819741910412e-02 -3.0632231331624665e-02  4.4086512555485506e-03 -1.9492893593905606e-02 -3.3653045293749878e-02  5.4955966834014389e-03 -2.3885564785503417e-02 -2.8261486873817056e-02  1.4093214515248942e-02 2.0182360357931604e-02 1.1510041921572756e-02  1.6189539111578451e-02 2.2404175323452655e-02 8.1603069442026683e-03  6.5051961753393684e-03 3.6482504018178125e-02 -3.8414808825181695e-02  1.5510854364084321e-02 4.6205341808536693e-02 -3.8679827742609434e-03  3.2806607900607354e-02 8.9639989486116289e-02 -7.3044700642311963e-03  3.7404931425685456e-03 -9.7915658695409052e-02 2.0500057911383211e-02  1.2587132005812386e-02 7.4269385501800331e-02 -5.9135799296926403e-02  1.4218576653527455e-02 -1.2382968580987416e-02 1.7478128414482864e-02  0.0000000000000000e+00 -6.0361784228936774e-02 -8.0033292205462417e-02  0.0000000000000000e+00 -1.5515626070560881e-02 -6.1905962271638325e-02  6.1234636165391433e-04 -1.5862515457420224e-02 -4.9753535637806018e-02  1.5004145550244282e-03 -6.6833624530164282e-02 -7.1970547685046196e-02  2.7357180752858945e-03 -5.7019991192127965e-02 -3.1172636702219508e-02  0.0000000000000000e+00 3.6614715583011020e-02 -9.3368655744321696e-02  0.0000000000000000e+00 -4.3436374219701729e-02 -9.9265223890731488e-03  5.9192975706670852e-03 -4.1979485015146416e-02 -1.3389345814818314e-02  4.5606820314850116e-03 -4.0728325867890033e-02 -6.1670059512995154e-03  7.6981367605976096e-03 5.1707313613637659e-02 -5.7653001966661930e-03  3.6183962207287546e-03 6.6322853717913910e-02 -2.1368146819462568e-02  3.3088465495126006e-03 2.9825784652474770e-02 -9.9787322647232179e-03  -2.6142472866465987e-04 8.1604422045928812e-02 4.4882926153538699e-02  1.0037009647049348e-03 5.3298387389420783e-02 5.0090522442263800e-02  9.8509063720216821e-03 4.4047693968923465e-03 -3.5288913229275007e-02  1.3105213467592523e-02 3.1356582241186598e-03 -3.1780860149130043e-02  1.6475543960887070e-02 9.8852348445478931e-03 -4.7698150767038629e-02  1.1223743934473838e-02 -5.2912310859449902e-03 -3.3997821317927980e-02  0.0000000000000000e+00 2.2610644142307339e-02 -6.0714743228432545e-02  2.3036429880694030e-03 3.6933352982027143e-02 3.1337376371787865e-02  8.6461920750258662e-03 -3.3209498427544448e-02 2.3828396693855298e-02  9.7033905838877690e-03 -2.6954925381530048e-02 2.5405670064646411e-02  1.1187404550975378e-02 -2.8417264447237727e-02 1.8112549160398873e-02  1.1233318915972526e-02 -3.1352824523255558e-02 -9.9855519438979447e-03  1.0254129570634162e-02 -3.0573708546226881e-02 1.5612917108359181e-03  1.6539156958770236e-02 -3.6626958103957045e-02 -1.2442498157752785e-03  9.7144467500139275e-03 7.1814735334290083e-03 4.1824558830153152e-02  1.0548705447134253e-02 -2.6248068582795272e-03 9.9165881702580935e-02  1.1090520469668170e-02 -4.8251860737725067e-03 5.4717210389159915e-02  1.0067261068662412e-02 -1.9622807866881791e-02 4.8259647469357153e-02  1.7921591238438905e-02 -9.9863939157457723e-03 9.4570029925748381e-02  6.9808444284709921e-03 -1.1463242763020376e-02 3.5936126000793010e-02  3.9492926013486290e-03 -3.9316105224338760e-02 6.5767419597245946e-03  5.9595077293991394e-03 -3.6999929590275468e-02 1.3679615652237426e-02  1.9095396787034577e-02 3.9379991037861745e-02 -1.2800669475213587e-04  1.5256985766467054e-02 -3.9037422566254002e-03 4.4775390139840027e-02  2.1496995585031486e-02 -5.1724479841574640e-03 2.5997297930743677e-03  1.2668525651472952e-02 9.4129687836191911e-04 -2.5513496930546875e-03  4.8872458361327899e-02 -5.1540526720132956e-02 -6.0936001904105933e-02  1.4270339697281451e-02 1.2723868486390198e-02 2.4903588399662693e-02  1.3301460261987967e-02 5.3542587381453614e-03 2.6375678752821870e-02  1.0883037008402738e-02 5.4208779589466183e-02 -3.3641345491321750e-02  2.4686340194976081e-02 -4.1978403315114220e-03 -1.5624865006764717e-02  1.7827131832996810e-02 4.2812060190893049e-03 -2.0882918690771676e-02  1.5316108019370066e-02 1.6720213891760569e-03 -1.9001559954923000e-02  2.6789959670605809e-02 -8.2417370374619184e-04 -3.0004089280819612e-02  2.0257565713374868e-02 -9.0910640100442565e-03 1.2534356312356418e-02  1.2809733106045077e-02 -1.7909661470563384e-02 -7.1448534523849642e-03  1.5161460645142797e-02 -1.6200891658625642e-02 -5.7868663586121329e-03  1.2630908377126592e-02 -1.6109093526972686e-02 -8.7072880568100190e-03  1.5471937714329633e-02 1.8295716712655362e-02 7.7373745068715517e-03  2.1623965983959759e-02 2.7382507417163901e-02 -1.0660686002216811e-02  1.7421809174102170e-02 1.4578008352128035e-02 6.6805173677145753e-03  2.3587955058680363e-02 2.2408978793216426e-02 1.7596628619389740e-02  0.0000000000000000e+00 4.2252458545414123e-02 -4.3968003981032205e-02  0.0000000000000000e+00 1.3740752409351440e-02 -3.8015100336463908e-02  0.0000000000000000e+00 1.7907304518244193e-02 -3.7104222561320017e-02  1.0133593648621340e-02 3.1737713968579634e-02 9.1244040488689060e-02  1.5799341273924114e-02 2.4250684647287777e-02 9.0052503452797222e-02  4.2047884043287121e-03 3.6164850168043820e-02 -1.1083401485908499e-02  0.0000000000000000e+00 3.3537549930401360e-02 -6.9683822719098848e-03  4.7602079713063468e-03 3.5665521830537929e-02 -5.6176119213090661e-03  4.8874341205717023e-03 -5.6125668901387087e-03 5.5080082140453346e-02  6.8735664963375433e-03 -6.1045158716234677e-04 3.6109889319352897e-02  4.6388517169181943e-02 1.0931952806766169e-02 -7.0559240367643272e-02  2.3195673817456148e-02 -8.7244207559400103e-03 -2.2128049932555346e-02  5.8956120043324386e-02 1.3913802751360607e-02 -6.6138083922355595e-02  1.1620654877446764e-02 2.9501828267907378e-02 -1.2872716382892065e-02  9.4973190481372448e-03 3.2598883750749846e-02 -5.8550588054882523e-03  1.0715312010035350e-02 2.7647014588151074e-02 -1.8967606465895803e-02  0.0000000000000000e+00 -4.8894968141824133e-02 4.3734293466982280e-02  3.3874349522476413e-03 1.3850059409849291e-02 -5.8609356664711565e-02  1.2229619684088793e-02 2.5329555731694948e-02 1.2589846046614278e-02  1.0900159444948380e-02 2.9615464198231564e-02 8.8892019121585217e-03  1.2855781387023963e-02 2.8868614555505656e-02 -1.0014598083533288e-03  2.1498006248991054e-02 3.7180989787736568e-02 -1.6598490684874827e-02  1.5762173355440390e-02 -7.2338744309488074e-03 -2.3806548782808374e-02  1.7047069777581809e-02 -1.5891547926332110e-03 -1.8896915662625514e-02  2.6371350288010520e-02 -1.4811296753661531e-02 -2.6600164363277324e-02  2.2664081559365796e-02 -4.3396999214940481e-02 1.6739575817861230e-02  4.6176321177482570e-02 -7.4406469689891869e-02 -1.7103335229307012e-02  3.5046531077199350e-02 -8.6593194717703562e-02 -1.1233533302540687e-02  1.7313410427641982e-02 2.9436980399424866e-02 -1.7697806750444055e-03  1.4442012191866419e-02 2.9015138916406787e-02 -6.7234591656141103e-03  1.7651330359542248e-04 2.3588509635157261e-02 6.7212366029897483e-02  6.6645308339814491e-03 4.4474000248401736e-02 1.6360930942840843e-02  1.0169492768074389e-02 9.1040646401324393e-02 1.7587969817856684e-0