<?xml version="1.0"?>
<VTKFile type="UnstructuredGrid"  version="0.1"  >
<UnstructuredGrid>
<Piece  NumberOfPoints="562" NumberOfCells="2167">
<Points>
<DataArray  type="Float64"  NumberOfComponents="3"  format="ascii">1.368988780486386 -0.3330614804626422 0.3812091262482924  1.457971735921389 -0.1022985678317614 0.3848351862271924  1.610427907917255 -0.2543337204802068 0.5283220094529932  1.517018421924314 -0.2975870322441377 0.2373535790744415  0.2896649584838891 -0.6565336317944969 0.3023309575633568  0.1476062501325057 -0.7596307241376263 0.3283146094026839  0.2103887490757956 -0.916837934661527 0.3815037813901131  0.2689768990101102 -0.8331508488021908 0.5326326663736717  0.9156822098122387 0.1728678968738864 0.3547279359267569  0.9955038627747099 0.1533306194452782 0.6087026577562188  0.7890673547573852 0.1092600253823605 0.4080960165386402  0.9145731457487908 0.02582743292350364 0.3935106194697764  1.555529446910997 -0.5403673213763167 0.3112575692626874  1.348103006996482 -0.462351674863219 0.1749673809371412  1.400987129938871 -0.69735066861689 0.1355899121124687  1.379596868832529 -0.6110590497219095 0.3769781373204191  0 -0.4990262892337586 -0.03118914320056031  0 -0.7290746446371459 0.09885523113658878  0 -0.717672921293292 -0.1906601281732726  0.1968984162950436 -0.7040029471989069 -0.07369861360184334  0 -0.04626762634821223 0.7372759069896635  0.1747349115361219 -0.1710428392996126 0.8075209349320995  0.1736439618246974 -0.1962945897661325 0.6287261280994423  0.1554956487469918 0.01915161770726388 0.8205218561784148  1.468118261285947 0.4388895086210086 0.1612631929613552  1.314649208445651 0.4683262063503433 0.04261620133015324  1.344984587319364 0.2109573947886681 -0.02958325590058262  1.313873754896346 0.1816089619152257 0.1471166805105471  0.8054134969450556 -0.533449770498696 -0.3926139635083312  1.023959850515393 -0.6045695018332022 -0.2205179401063885  1.05215698719499 -0.4565551953633328 -0.3958586963103667  0.8906623628738856 -0.3599786025326254 -0.1746980748537972  1.697689701537584 -0.1214082871572868 0.1246812640999428  1.488464593112258 -0.01630978270888243 0.02506236650239546  1.430421324362075 -0.1422530463333789 0.0006438225420573964  1.443375672974065 -0.09622504486493764 0.09622504486493764  0.7321510998862281 0.5624492232270197 0.3646846381716035  0.9239002426432321 0.3480246702761787 0.1811782883685  0.7490852309803118 0.4095827285081708 0.1339143819021366  0.9285858048943815 0.6335571890886311 0.2734941480292951  0.5604589232358378 -0.5698201261526246 -0.445758982164192  0.6089524280343109 -0.7218043571025563 -0.2041610728153083  0.6992001125134369 -0.7541456942161303 -0.5502812588103354  0.6274724868209266 0.4419785778654846 -0.5250198354585243  0.8756473641379455 0.3468289673768704 -0.5629197215258924  0.67802877664681 0.1808686458692327 -0.4046923641025996  0.5747192133026287 0.2418214339106003 -0.6661394725993455  0 -0.05589422902377143 -0.4966102514551253  0.2056253598613783 -0.1053038618535594 -0.6787933827793691  0.1556038154442484 0.06282062757538044 -0.6543309982444776  0.2724660772724383 0.01271359915602951 -0.4910330623919412  0.9865780311818615 0.5347283976096202 -0.3161606543928742  0.8204442367782485 0.5439521650280197 -0.46835255331516  0.8298883357700151 0.2747691377838339 -0.3083728461704535  0.6862435664967209 0.3812464258315117 -0.228747855498907  1.177314513331318 0.2155896063490769 0.2140622858922932  1.267656842582551 0.5005914574877968 0.2726043363799996  0.5728594645233351 0.3135209056411565 0.5449126792957779  0.5106867385450642 0.5036153923917321 0.4965240972019211  0.7698782860739618 0.3545773464498151 0.5878168661371025  1.257062485956698 -0.4638359972454 -0.342956295722521  1.188194666541641 -0.2467563208328611 -0.4932880249876783  1.208812547869822 -0.2451038235802088 -0.1523648506518715  1.405543018003129 -0.3155823461555193 -0.3144549970062264  0 -0.1321637113190494 -0.9912279018522304  0 -0.3021402933326705 -0.9528694918273042  0.2240193167333228 -0.2163747517189394 -0.968604487305365  0.1588608620926228 -0.2417277328284706 -0.7863213987186402  0.234290723282165 -0.4158101367292431 0.6068160964348613  0.336171426774712 -0.1961275532959101 0.7074104293225126  0.2157572393158068 -0.1977293037481581 0.4531390059122784  0.3402759051114709 0.1630546516396377 -0.7060477597699854  0.1632882031789302 0.196780254177258 -0.7862562160633888  0.231029003331308 0.1880338449615072 -0.4559977997563014  0.4728863797400071 -0.4933154510626057 0.5304985100819815  0.187854599331762 -0.6281900592232541 0.4987253373128265  0.1504625078742185 -0.4631455710889698 0.4631699097377626  0.5053019851007623 -0.4639188236666469 -0.07333804255252858  0.5526823878021767 -0.6967835074188571 0.215903246388164  0.6541336653852354 -0.7283429953560903 0.01682686734495902  0.6106765895285129 -0.435572044232048 0.1342135044502026  1.287900750276439 -0.4687881345125656 0.5967914885117886  1.473254424964647 -0.2014289120459823 0.6388974134251688  1.252201609832917 -0.1994817872140489 0.4924873900544187  0.6933873765617349 -0.4558378836670255 -0.5791550267835122  0.4866071064794875 -0.3834461891956515 -0.6005511129213282  0.6019697230687768 -0.6242818145703938 -0.7168889634012832  1.902820210771035 -0.06211515387208391 -0.2891430129447606  1.990339083299429 0.001064238785733084 -0.07652382797423923  1.724478368935762 -0.003788849933621816 -0.09935623650575776  1.954875178599839 -0.1249628659413422 -0.1581861500923273  0.9809979007020542 0.3576737082789349 0.535667969994543  1.241639713161487 0.2329691467692865 0.4709274800730408  1.03542332926206 0.2261833785676189 0.277619257236822  0.844968024044826 0.2915591042812161 0.85479271387891  0.9643254804467414 0.1075471943400586 0.8675308624173648  0.7528609021968682 0.08903098632416863 0.6868333670574929  0 -0.2092988896484911 -0.7083966808149078  1.404920008928814 0.3372989555460403 0.316767914436192  1.004219460199691 -0.2737979137568052 -0.4388250598374921  1.180873089276474 -0.4621305164745083 -0.6560168552866585  1.053305258761655 -0.3284868324358208 -0.7801286865200052  0.9712979390145692 -0.5110446369696806 0.4327235545709323  1.146293004560022 -0.6668284527145589 0.469882080380535  0.8963334118470608 -0.7310840957918627 0.5111265403121084  1.08206659020357 -0.7596894074461439 0.3528958016823166  0.8015085840467554 -0.3389768733860401 0.6685991538206634  0.925104953366791 -0.4648901631989753 0.7519021955945258  0.9984935472219151 -0.3065996581170283 0.5499211474208088  1.002288197777214 -0.2792071613298824 0.8153893475416765  1.215846416214816 -0.2524645935340363 0.7497327115816464  0.3024217308764339 0.4448958319181652 -0.8808605755070491  0.390139049844082 0.2930948946191007 -0.9351790364388617  0.7478274009820868 -0.4286314222864522 0.5038265581755443  0.2148561413125 0.491329266113953 -0.05528733303340339  0.2309383938052318 0.714092978138881 -0.2036113182046372  0.1975535218752708 0.6794042289099913 0.05518288617085648  0.3761572698058325 0.4709053903224183 -0.110071861452686  0 0.5090940372412278 -0.5349460340386839  0 0.5350603504932784 -0.8430433168771743  0 0.6738578937333988 -0.737915259701458  0.164109593248377 0.5761575785324918 -0.5890928788615022  0.2475029747273103 -0.4561046932550408 0.8800394901604827  0.3694925429576245 -0.5958501646405832 0.7791131291684588  0.4406799393760092 -0.3650559370457628 0.6810505410128649  0 0.4382264083498228 0.5937380410910144  0 0.7379152597014565 0.6738578937334002  0.1559289910125653 0.445628518864029 0.6984925326213108  0.2324810536730123 0.5213808955010337 0.5258435644279391  0.3555983309770547 0.656027019032849 0.3461651671211329  0.2458237569105728 0.8801511092168622 0.4561636277282752  0.1607954010233367 0.6785216544507058 0.4667873694261923  0.3826204414382912 0.7779301383454942 0.5949541429760784  1.52119605566691 0.1993844535737337 -0.3296462252473032  1.414311204796628 0.3898129177969151 -0.2057175795712648  1.35043553368913 0.31412477587753 -0.3988690910712985  1.281185985486842 0.1662780899176228 -0.1943758563769023  1.099075518775129 0.05947806630170303 0.3306302206363526  0.3679939443262019 0.3447617450768622 0.6523888179221276  0.4109508094888962 0.2773549013757027 0.3912230928899285  0.1373126243972625 0.5009352089527304 -0.4461785342859961  0.2664596187693265 0.6010832976391717 -0.4365657049749609  0.2179946197840175 0.4409807484602174 -0.2220003033063632  0.2617145123926756 0.3390154592910617 -0.3562749789872797  0.5824068775984312 -0.3170408450840759 0.3306350426033773  0.7199893230774794 -0.3705530655917506 0.2326552719422485  0.8358295522502738 -0.2669244509736641 0.3143056243869983  0.5587150980897445 0.6294294572528504 -0.01623015267248071  0.753690685110203 0.6532057608559532 -0.2369277096202369  0.7001301874755437 0.7550693058622343 -0.0524082716182921  0.6800782824703502 0.4417054734682031 -0.04452076045795449  0.4884308328800496 -0.9272425338669441 -0.2789182923255702  0.3906764030666174 -0.9712790424584049 -0.1262145572896986  0.6009334315497298 -0.9480231963115218 -0.09890104373476166  0.420071318585673 -0.7193185330298141 -0.02275610742170561  1.385707654592962 0.3976065221960926 -0.5961074699430042  1.219420193990472 0.4625196146528674 -0.3667717582939762  1.149364473949646 0.3130412125134983 -0.4806343490178561  1.195708172099174 -0.7474690340482983 -0.2799311705246049  1.219932523946796 -0.5119522484128803 -0.1401161375153302  0 0.4628593543202276 0.8855632312882982  0.3015827308425723 0.3699196515636318 0.916118113296736  0.2831250486531117 0.5320147666868361 0.8321945108773773  0.3825795555914422 -0.6690296309761865 -0.2952055242879837  0.4043090205097222 0.4000926521875504 0.2655017005394236  0.5978414449389082 0.3237928842626442 0.3209363851519929  0.2645148779899891 -0.338943586656435 0.3561994752880429  0.4219521826235639 -0.4004970037301178 0.2625370852546315  0.2094134450411068 -0.427547835839946 0.2479337980438358  0.1857857161792982 0.4082826524643675 -0.7114865320202091  0.4350093809141001 -0.08779074384838936 -0.7057378089671015  0.621
[...]
<PointData  Vectors="state-0"> 
<DataArray  type="Float64"  Name="state-0"  NumberOfComponents="3" format="ascii">2.7726256864536711e-02 3.3700669787125825e-02 8.3889903147916695e-02  2.6975054518633183e-02 1.8298433724079220e-02 7.4024951476416148e-02  2.4461132831572002e-02 -3.3085621742248122e-03 3.6875687797283181e-02  3.0448233873158554e-02 -1.3654384254610293e-02 8.0428348910944844e-02  1.1436177333645483e-02 -1.1810570141930188e-01 -2.1929643768663749e-02  5.4912626639757886e-03 -1.0903330784161153e-01 -9.2105858337380596e-04  1.0237001443725335e-02 -7.1236078572994563e-02 1.6979516157380158e-02  1.0686040013732998e-02 -6.5721531523947274e-02 3.1799573695861179e-02  6.5008512323616249e-02 -1.2517865218277233e-02 1.4636108838971895e-01  2.7082636615728756e-02 4.4998819702391099e-02 6.9638462866983344e-02  5.5364443925649071e-02 -3.8790375968206323e-02 1.5346182804949013e-01  6.7028917541949035e-02 -6.9278948491579020e-02 1.3096129741415302e-01  2.1945447952242826e-02 -2.0567187285571734e-02 2.2542062943358882e-02  2.8104022511938959e-02 -2.8455898306124786e-02 7.3224561302321994e-02  2.6110817926529958e-02 -3.4108797393731301e-02 1.4651897912204621e-02  2.2751354673125477e-02 -2.5823723003836462e-02 2.6988034401909423e-02  0.0000000000000000e+00 -1.6637125420867704e-01 -5.0104857254179049e-02  0.0000000000000000e+00 -1.1666151002341735e-01 -8.0347653139479377e-02  0.0000000000000000e+00 -7.4760707787921460e-02 -1.1795515060210494e-01  4.4710184503704573e-03 -1.0589618910131926e-01 -8.9776235151514519e-02  0.0000000000000000e+00 -1.0576080162413226e-01 9.0177491775118232e-02  7.9587181368177325e-03 -7.0598058828376567e-02 8.1249062444466322e-02  3.8590351105177579e-03 -1.2437510201115702e-01 8.6824434308803461e-02  8.8252927907048091e-03 -5.4759598768662043e-02 9.2269499730047652e-02  3.6513901610392946e-02 4.4801965490427441e-02 -4.9716712441295732e-02  3.4189169300384722e-02 8.4783008337935950e-02 -1.7126175740122266e-02  1.4270814673177126e-01 9.6462111664337699e-02 4.5779810052348734e-02  1.3444847502752780e-01 3.3787303351035872e-02 9.7572519539748367e-02  2.9613829295989814e-02 -6.2606405731957263e-02 -5.4842293323871007e-02  3.1473907470709064e-02 -6.3937407147306669e-02 1.5138190118988114e-02  3.6632029422223815e-02 -6.6059362195169793e-02 -3.4854252650188634e-02  7.2937618964843173e-02 -8.1020329931142707e-02 -1.2744512229979058e-01  8.9834002722865139e-02 -2.6031499875007327e-02 5.0086218540480322e-02  2.2494133908078506e-01 -1.3107746049734846e-02 4.6133280224383219e-02  2.1764869349689062e-01 -5.0097618384197712e-02 -5.7088959410398550e-02  1.9728031743846419e-01 -5.6396155941243295e-02 5.7838733860219168e-03  1.6992726277808949e-02 6.4294011625313174e-02 7.0861204680309292e-02  6.6679548609152622e-02 8.2879188148730534e-02 1.3220336123093748e-01  4.5179049470572746e-02 1.0855631836571239e-01 1.2343911222123738e-01  3.0197128267564027e-02 6.9850535136921604e-02 -1.7385495333587686e-03  1.8439083182055432e-02 -6.4034667027786429e-02 -7.1057979980352987e-02  2.2025087750988902e-02 -7.0879691770915437e-02 -1.4492171861968032e-02  1.7410327297923411e-02 -4.1805457712946845e-02 -3.1643809319787108e-02  1.5913396357496386e-02 8.1985562465758624e-02 -4.8294331017586477e-02  2.8213615334999279e-02 4.1845763699873348e-02 -6.2017817883898124e-02  4.4098486887215807e-02 1.3060335955888369e-01 -1.0618758378079050e-01  2.2750071802166111e-02 6.1264805071256576e-02 -7.5794489563579051e-02  0.0000000000000000e+00 1.7153828926788389e-02 -1.6647333518910895e-01  4.9611623423946420e-03 6.8069539635784007e-02 -1.2079844234887401e-01  5.8380833782751386e-03 9.8821377409082922e-02 -1.0984735305904615e-01  1.5105159650508735e-02 5.9427640779366998e-02 -1.5963826281801133e-01  3.1032971960043405e-02 6.3122422375222559e-02 -4.6370429868487245e-02  3.4546713294207200e-02 4.5278773162497100e-02 -6.1989585054413994e-02  5.6077273668420149e-02 1.5459650505068756e-01 -5.1309690552278409e-02  4.2723022716261397e-02 1.6244623543006254e-01 -6.0553706248738593e-03  1.0354416044669067e-01 2.0682971248760035e-02 1.1994022027560040e-01  4.3200569629441812e-02 7.8319489799272182e-02 -4.0957015742373475e-02  1.7755338140169309e-02 6.1068018213287049e-03 1.3090342643743513e-01  1.1483793204334569e-02 3.9246839487925199e-02 9.6668521695128795e-02  2.6808348566681114e-02 4.6839460390959847e-02 7.2790516511041056e-02  4.4649234542366058e-02 -6.6151141763145155e-02 2.1749838167538244e-02  3.8327404978143492e-02 -4.6188475980560958e-02 -5.3297821646116267e-02  1.1944693703544207e-01 -4.1915793521814480e-02 -1.1471997118771582e-01  4.6014844806775097e-02 -5.9790500246568408e-02 -2.5799696610922688e-02  0.0000000000000000e+00 2.9505839701194103e-03 -5.5674230934503618e-02  0.0000000000000000e+00 -1.0991586568913202e-02 -6.4282113313607711e-02  1.1236168532122007e-02 -7.5729577530325087e-03 -6.0879132252631495e-02  8.1001807495509216e-03 2.7787910080918837e-02 -1.1251386192091865e-01  1.0197408819688662e-02 -1.1678015762319829e-01 3.9463671204115237e-02  1.1273036342258602e-02 -8.7545795151259612e-02 7.1883251249742805e-02  4.6299638040660012e-03 -1.1467274019972987e-01 1.2375347397395621e-01  1.6521665958699413e-02 7.9753652195798871e-02 -7.8782134623232233e-02  7.8702565766180024e-03 7.1435871578190410e-02 -6.6832423360217760e-02  1.2433158989503094e-02 1.1308056705762387e-01 -1.3532734274823430e-01  1.6958892216753559e-02 -9.3699887376837945e-02 3.9175404446808386e-02  6.4162722709326311e-03 -1.1533112335435022e-01 1.9835389885387172e-02  4.4975005504416269e-03 -1.5007302157319083e-01 2.1011143380743943e-02  3.0995794171743047e-02 -1.4846298063909863e-01 -1.0073307608991494e-01  2.0318101543121261e-02 -8.7459278480667826e-02 3.3986934350407776e-03  2.2569563503299549e-02 -7.7331822519426566e-02 1.2608131286096801e-03  4.2002553953740043e-02 -1.6966608026302463e-01 -3.0343058801883049e-02  2.0090903944484921e-02 -2.3741495230769648e-02 3.6123297331283659e-02  2.3715804319915209e-02 -7.4247812112964589e-04 3.6476994865391556e-02  2.5914404599873011e-02 3.0577378343402014e-02 7.7611400509416908e-02  2.5694944994752111e-02 -5.4185224737525101e-02 -5.4735196872271734e-02  1.2218398278896810e-02 -2.4544906320382101e-02 -1.0388921753817010e-01  2.0580665490304521e-02 -4.0977874012198670e-02 -5.2653165265964863e-02  3.2893557433109913e-02 -1.5587453050371899e-02 -2.4856507810693828e-02  4.3731872827127975e-02 -8.8377079437998544e-03 -1.2250052912790856e-02  9.0370814072746372e-02 2.8076267066289469e-02 -3.8181083880047997e-02  2.7637683019521558e-02 -2.1864726560716623e-02 3.1736804079344192e-03  2.9492581422800139e-02 6.4843725875762495e-02 4.2382785629140253e-02  2.5847853482249595e-02 6.4969136351343146e-02 4.4076498227090498e-02  8.3842385289884677e-02 1.5050507674197114e-02 1.3696386672566252e-01  1.6341989600238856e-02 1.7227154036317201e-02 4.8369531194369909e-02  2.1791688142762639e-02 9.6295021583465683e-03 5.8450518207810540e-02  2.4853344579467838e-02 1.3070527128579411e-02 8.0380305586501818e-02  0.0000000000000000e+00 6.3050094002074911e-02 -1.2424107960799101e-01  3.5770016694716453e-02 6.7346248189440405e-02 7.9814017422288244e-03  4.0418782964828530e-02 -1.2724275472087158e-02 -1.0762539577640930e-01  2.1863210473740721e-02 -2.3809430926361199e-02 -2.4228903584131593e-02  1.9938963353179615e-02 -1.7036925008597412e-02 -3.7465833823021745e-02  2.7610139724432110e-02 -9.0105680683321993e-03 7.6941178867938068e-02  2.4542353592737504e-02 -4.6238156103118856e-02 4.2477733283796545e-02  1.4009519746166096e-02 -4.6903328477984951e-02 3.3434318235909838e-02  1.9107031441635974e-02 -4.1561346539930953e-02 2.3095496749849825e-02  2.6879736806641557e-02 -1.1785915887312577e-02 7.6626108229890438e-02  2.0052814883193038e-02 -3.2635634144876496e-02 5.4852736813146771e-02  2.5459594016253168e-02 -1.1916366700980873e-02 7.7161382612182264e-02  2.0429522877457706e-02 -1.4494601315501334e-02 5.6238788460836048e-02  2.2761494954426635e-02 -1.0568247960291764e-02 5.1895662978403700e-02  4.4832755562594596e-03 3.3212483397301241e-02 -5.4111974154995281e-02  9.3810987967128008e-03 2.7702429195316364e-02 -6.0928689992076873e-02  2.5752326447284261e-02 -7.4324032090405320e-02 6.0996419233883499e-02  8.1916979294451835e-03 1.6241503164052623e-01 3.6641354773317279e-02  6.5094088840340000e-03 1.1266565909775804e-01 4.7920736596836912e-02  5.4627546824403909e-03 1.0174582210384614e-01 9.9082051274578017e-02  1.8201429821055236e-02 1.6936959041329000e-01 2.8915953592250455e-02  0.0000000000000000e+00 1.4544515034874522e-01 -7.7824419742030162e-03  0.0000000000000000e+00 4.6441709665210815e-02 -5.6653645488693394e-02  0.0000000000000000e+00 5.7921558197913135e-02 -5.2614474753483478e-02  4.8875496392212026e-03 1.0549998323203365e-01 -3.4347067409765453e-02  4.4254868261624225e-03 -4.0485603208197336e-02 5.9192800948441093e-02  1.1132580192956655e-02 -4.8312093698993266e-02 5.1310803242297406e-02  1.8463471475244759e-02 -7.5028867159669624e-02 6.6865510299527350e-02  0.0000000000000000e+00 -2.3574363889448582e-02 1.4460357135804136e-01  0.0000000000000000e+00 3.8210815827047842e-02 4.8168940231097128e-02  6.2126225922125976e-03 -5.4791361155501822e-03 1.1954806667594436e-01  8.9718566846714552e-03 1.1468914282041843e-02 1.1999772853431037e-01  9.9985070860133616e-03 5.2472681070027449e-02 9.6801725239875763e-02  9.9418110346168233e-03 5.8059608499841375e-02 3.7904899062790889e-02  3.1892397635766901e-03 4.8839583892308296e-02 1.0645895840365714e-01  8.5168735518235950e-03 4.6140008110161369e-02 4.5684772129093748e-02  5.6166100226320848e-02 2.7218813792352649e-03 -5.5389133958294562e-02  4.5483380440748122e-02 4.2842386553011626e-02 -6.5125852911949902e-02  5.0784371953744377e-02 -9.5341253311905464e-03 -6.6782484823993321e-02  1.2136270287728182e-01 1.1089172425769460e-01 -2.5050464904993491e-02  9.3354629784777085e-02 -5.3061995986488329e-02 1.2042052187831756e-01  1.0822699803561361e-02 -5.7563852101820282e-03 1.1208896088870104e-01  1.7921802847945669e-02 3.3599259880938197e-02 1.7277824183021545e-01  3.0821391712737862e-03 1.5047584055282867e-01 -4.0160515058673971e-03  1.0702056533637908e-02 1.1489616723166544e-01 -8.5900323878394303e-04  8.6475477719767258e-03 1.6451953264801747e-01 -2.4323901316692934e-02  1.2938438867337556e-02 1.5375981516809029e-01 -7.4007965066639703e-02  3.4861707291164848e-02 -1.6457935824473172e-01 6.1416908677531995e-02  5.1678012749414338e-02 -1.6624144676731809e-01 9.5506171476360015e-03  6.5321025180196265e-02 -1.4939745849231134e-01 5.2236075367281254e-02  1.4490185682476583e-02 1.1492017189796962e-01 6.1771861550664019e-02  2.3736704187644436e-02 7.5346491444644101e-02 -1.8439284913038478e-02  2.9703992917521627e-02 8.4286756136450799e-02 -2.8571228550622173e-03  4.0523087351530547e-02 1.5404163669737789e-01 6.7092899676111817e-02  1.6656778486449704e-02 -6.4251652724941904e-02 -2.2602226459971876e-02  9.5415941958329701e-03 -6.3284511506529487e-02 -1.2723087658659323e-02  1.6980596791474636e-02 -6.5115321396219908e-02 -8.2932546353691409e-03  1.1808824133539781e-02 -9.9813605149590048e-02 -4.8711904774053967e-02  3.1731016083375918e-02 1.5863556317855493e-02 -3.9754198928300996e-02  4.3446121633508493e-02 3.8027865919776924e-03 -7.3951950409264583e-02  3.7399490923558529e-02 1.8563018376938540e-02 -6.5691689329978722e-02  2.5770073255506811e-02 -4.0652317705099861e-02 -1.3957742765368304e-02  3.5149582653021878e-02 -6.4232450586149140e-02 6.7625801802444849e-03  0.0000000000000000e+00 1.7014679084035984e-02 6.0652724308359600e-02  1.0585618145523645e-02 1.9245271942504787e-02 7.2772689239472679e-02  7.6888952582032724e-03 2.7331968036254733e-02 5.8617933448786803e-02  1.3667766402002847e-02 -7.3511409291415447e-02 -8.1672314692776943e-02  1.8344336933805553e-02 9.0752316030827826e-02 1.4717577650485850e-01  3.4403886241240508e-02 5.0553086208996727e-02 1.6113960735846516e-01  6.6385269934350934e-03 -1.5913034302776846e-01 7.5762058502196569e-02  2.1144305948041266e-02 -1.7738735218673665e-01 3.1978113989480528e-02  6.4315094839185764e-03 -1.6544013577832370e-01 3.3765834226500799e-02  6.1805038571219858e-03 7.0085052454045352e-02 -4.3098910810127622e-02  1.4870288540353771e-02 4.2360961598091711e-02 -1.0667031329198527e-01  1.5377018866379816e-02 -2.8112030859612395e-02 -1.8497498175529838e-02  2.7503318275483021e-02 5.2108357246154896e-03 -9.5066620575546823e-02  3.7576156598906778e-02 4.2652884892109652e-02 -1.7289091144142305e-01  3.4892999347878290e-02 5.2626525570163563e-02 -5.8297917590796097e-02  3.0926732393849188e-02 3.8386047669664372e-02 -1.1491301524945928e-02  1.8457314576969530e-02 -4.4326406596732919e-02 2.7516025513177427e-02  2.2828475932004620e-02 -5.0916512962583725e-02 1.8813677027615095e-02  1.7639250941510868e-02 -5.7508729385317765e-02 1.8152000079168101e-02  3.1000159894058847e-02 -6.1136626995638238e-02 4.4358615834944735e-02  1.5830366225225212e-02 6.6981350967386638e-02 4.9410550229460712e-02  8.7067924074690859e-03 -1.0892282803611977e-02 -9.7746796147104964e-02  8.9368380855916803e-03 -3.7736280946786750e-02 -5.7460194186309488e-02  8.5782991074666443e-03 -3.1113528565946864e-02 -6.1211501251912256e-02  1.1272022196259741e-02 -3.6400042850345149e-02 -4.9975637827667424e-02  2.7026255528006801e-02 4.0622590516584643e-02 1.9231199978965472e-02  2.3427120628555051e-02 4.0278950355598489e-02 5.6170055002717741e-03  1.3373833644286660e-02 1.0005547312588303e-01 -4.4556061654793921e-02  2.4143336986189444e-02 8.4170307018608531e-02 5.5621844116796933e-03  6.5282821992738771e-02 1.4913533020664421e-01 5.3755194081382685e-02  1.5656481487392460e-02 -1.7282637466376924e-01 -3.7079039367690067e-02  3.0418270660169482e-02 1.6628427136194585e-01 -4.1161548865501267e-02  2.4998640487017859e-02 -2.0551330216723687e-02 3.5462344542994101e-02  0.0000000000000000e+00 -3.8353888714821822e-02 -1.6686580864341849e-01  0.0000000000000000e+00 2.0233237337530560e-02 -1.3727731463711143e-01  3.0996922805258511e-03 8.8626507806971455e-03 -1.1105523976095369e-01  7.3787078028563586e-03 -5.4045466931659528e-02 -1.6405492231771848e-01  6.6023784556599662e-03 -8.4602332036697772e-02 -8.4849276351044250e-02  0.0000000000000000e+00 1.2281562022798502e-01 -1.1954636032506037e-01  0.0000000000000000e+00 -7.1548441008816244e-02 -2.2102892617577398e-02  1.1671336564454432e-02 -7.1249857103192760e-02 -2.7204126126939124e-02  7.5837291696020295e-03 -6.1063374433282566e-02 -1.6630148922795275e-02  1.6349589645737239e-02 1.0052879278237740e-01 2.4623527263316045e-02  7.1406685396287637e-03 1.3767814245170432e-01 2.3747173044144226e-02  5.9385235266867500e-03 4.7895275720620266e-02 -1.4729216232506552e-02  5.1774176468037045e-03 1.0043279022072067e-01 1.3531402969066542e-01  4.2878699138813514e-03 4.9578683612280586e-02 1.4414359877686264e-01  2.0286246023612505e-02 8.1103968939383684e-03 -6.5026228439654332e-02  2.3811662455157225e-02 5.9612502998627895e-04 -5.2342731024265995e-02  2.8380605305252549e-02 3.5457813824928283e-02 -8.2034582692229810e-02  1.6601827573457271e-02 -1.0058667736643087e-02 -5.7196193719729324e-02  0.0000000000000000e+00 1.0059249251119909e-01 -9.5492242576720593e-02  5.7857013361538902e-03 5.4145625556769383e-02 9.5979231656751929e-02  1.5530633688604804e-02 -6.0510144253839007e-02 4.0889737167220490e-02  1.8700317511119668e-02 -4.9504733964417923e-02 4.5123766297952977e-02  2.3858434137367254e-02 -6.3809608905776430e-02 3.5223455144362918e-02  2.0091251046330468e-02 -5.5334541309028901e-02 -1.8641051517134636e-02  1.7281230405818648e-02 -5.8140385368854408e-02 1.9157631927773152e-03  2.7764086360975309e-02 -7.1832257430414728e-02 -5.5857608260569827e-03  2.2044406202649313e-02 4.5143209066446453e-04 8.6441257688742543e-02  2.6272091167629331e-02 -7.5203035960133419e-02 1.5790248150768146e-01  2.1250721324016470e-02 -3.8121108099602459e-02 9.5605599967448399e-02  1.5961901177838220e-02 -6.4753569011746642e-02 7.3279711772394771e-02  4.0683989529159907e-02 -8.5585651031316087e-02 1.4793276744558786e-01  1.4312559605762500e-02 -2.2913726012521902e-02 6.2261685210796371e-02  9.6539614079796561e-03 -7.0714437086849088e-02 7.7529397096334531e-03  1.0876573527466880e-02 -6.6442426235843594e-02 2.0051219239459035e-02  2.8810158673153789e-02 7.6242351618764137e-02 -1.4567496523560226e-02  2.5024044526528552e-02 -1.4878909885386720e-02 7.9351538761741267e-02  4.5236677088278630e-02 -2.3954729829041406e-02 2.5414294136723321e-02  3.7564734717629208e-02 -7.0301177783454643e-03 -7.7523587669297263e-03  9.4036561712046093e-02 -3.0590833731899410e-02 -1.2710095537894966e-01  2.1992366468239950e-02 2.4964564824533419e-02 3.8968871698212212e-02  2.0799059614843705e-02 1.1126706995821634e-02 4.5136501703003921e-02  1.9094257346019598e-02 1.1849087433202077e-01 -1.7812549213352371e-02  5.5413119534057774e-02 -5.2784355993459250e-02 -3.5143233021528650e-02  2.8820282669922575e-02 -9.0929049714684495e-04 -3.5036431144981575e-02  2.4312425138172587e-02 6.1099762763649221e-04 -3.0495830832857472e-02  4.5936904058381384e-02 -2.1112168730226321e-02 -5.7129961620908408e-02  3.5941695740500913e-02 -3.3350994976726833e-02 7.2465823865619741e-02  1.7759056297403993e-02 -3.0981079233242195e-02 -1.4466390151307683e-02  2.8364103849825802e-02 -3.0454840613702683e-02 -4.2362917019786251e-03  1.8600426169275073e-02 -2.2644707806561221e-02 -1.0169181271612756e-02  2.4076320089282687e-02 3.4383738735955120e-02 1.1079772830493192e-03  3.8025589158023829e-02 6.2768900990603921e-02 -2.9317415440283875e-02  3.2404385486019829e-02 3.2827538448668259e-02 8.8180454380110368e-04  4.4998425057189449e-02 5.7959283764862854e-02 3.6011922724835645e-02  0.0000000000000000e+00 1.2862711220442941e-01 -5.0750491501769579e-02  0.0000000000000000e+00 2.6849454061562014e-02 -6.3859691220615314e-02  0.0000000000000000e+00 3.7476912753231409e-02 -6.7130069518009525e-02  2.5641919904911225e-02 -1.5811922972073948e-02 1.7394587285628607e-01  3.7236975652099789e-02 -2.7764792837483288e-02 1.6729375269980062e-01  8.4309104194065093e-03 6.4970482675055216e-02 -1.5234159925159804e-02  0.0000000000000000e+00 5.0446844879925026e-02 -7.1209138968408164e-03  8.4715611409509131e-03 6.4618062429860346e-02 -4.8008878443670132e-03  1.2386407744097355e-02 -5.6474983029551187e-02 1.0100436036373101e-01  1.3999993688089400e-02 -4.8054377388891557e-03 6.4897855374621019e-02  9.0366900496123545e-02 7.1128692318359027e-02 -1.0099876822745509e-01  4.4798509108609712e-02 -5.5255006768070734e-02 -3.8459775545598963e-02  1.1175058467335501e-01 7.0973215080093258e-02 -8.9786359244243774e-02  2.1871223958382254e-02 4.7296507046256445e-02 -2.3804586352771998e-02  1.7882504739236936e-02 6.0180531636422264e-02 -8.4735276976209278e-03  2.2312139604805555e-02 4.9455960695500539e-02 -3.7518035566608710e-02  0.0000000000000000e+00 -1.3564248083128261e-01 5.0011472815442728e-02  8.5000731459346501e-03 6.0923952080037619e-02 -1.0073059429486554e-01  1.9776270817370375e-02 4.8582301089432317e-02 2.4582687547143701e-02  1.8403371721628380e-02 5.2856359808487956e-02 1.6604956054080119e-02  1.9224355780993584e-02 4.7098231442399434e-02 -5.4930098168455418e-03  3.6004576700791747e-02 6.5136757240279203e-02 -4.8672939082827354e-02  2.5580197372995564e-02 -1.4371497955176157e-02 -3.4438264238504608e-02  3.0191335256427129e-02 -1.1035522648786759e-02 -3.6087635893874918e-02  4.3580191730831212e-02 -5.7139517853495150e-02 -4.2357417173994730e-02  3.3626489922004434e-02 -7.8701562590639082e-02 2.1631642269936319e-02  9.2477656318810039e-02 -9.7863126261570593e-02 -8.3796369532987483e-02  7.3005916887655453e-02 -1.2675798137196928e-01 -8.1654068078640077e-02  2.8900263932275513e-02 5.1672217547739291e-02 -7.3010623619223867e-03  2.4616496068060267e-02 5.1411391970763963e-02 -1.6954812422907514e-02  2.6929501644261601e-03 -2.4400533394176416e-02 1.4520069550658887e-01  1.2447564692234181e-02 7.5747700565712228e-02 7.0636000581087002e-02  2.6750129218730906e-02 1.4040160804563809e-01 9.8776837439648629e-02  