<?xml version="1.0"?>
<VTKFile type="UnstructuredGrid"  version="0.1"  >
<UnstructuredGrid>
<Piece  NumberOfPoints="562" NumberOfCells="2167">
<Points>
<DataArray  type="Float64"  NumberOfComponents="3"  format="ascii">1.368988780486386 -0.3330614804626422 0.3812091262482924  1.457971735921389 -0.1022985678317614 0.3848351862271924  1.610427907917255 -0.2543337204802068 0.5283220094529932  1.517018421924314 -0.2975870322441377 0.2373535790744415  0.2896649584838891 -0.6565336317944969 0.3023309575633568  0.1476062501325057 -0.7596307241376263 0.3283146094026839  0.2103887490757956 -0.916837934661527 0.3815037813901131  0.2689768990101102 -0.8331508488021908 0.5326326663736717  0.9156822098122387 0.1728678968738864 0.3547279359267569  0.9955038627747099 0.1533306194452782 0.6087026577562188  0.7890673547573852 0.1092600253823605 0.4080960165386402  0.9145731457487908 0.02582743292350364 0.3935106194697764  1.555529446910997 -0.5403673213763167 0.3112575692626874  1.348103006996482 -0.462351674863219 0.1749673809371412  1.400987129938871 -0.69735066861689 0.1355899121124687  1.379596868832529 -0.6110590497219095 0.3769781373204191  0 -0.4990262892337586 -0.03118914320056031  0 -0.7290746446371459 0.09885523113658878  0 -0.717672921293292 -0.1906601281732726  0.1968984162950436 -0.7040029471989069 -0.07369861360184334  0 -0.04626762634821223 0.7372759069896635  0.1747349115361219 -0.1710428392996126 0.8075209349320995  0.1736439618246974 -0.1962945897661325 0.6287261280994423  0.1554956487469918 0.01915161770726388 0.8205218561784148  1.468118261285947 0.4388895086210086 0.1612631929613552  1.314649208445651 0.4683262063503433 0.04261620133015324  1.344984587319364 0.2109573947886681 -0.02958325590058262  1.313873754896346 0.1816089619152257 0.1471166805105471  0.8054134969450556 -0.533449770498696 -0.3926139635083312  1.023959850515393 -0.6045695018332022 -0.2205179401063885  1.05215698719499 -0.4565551953633328 -0.3958586963103667  0.8906623628738856 -0.3599786025326254 -0.1746980748537972  1.697689701537584 -0.1214082871572868 0.1246812640999428  1.488464593112258 -0.01630978270888243 0.02506236650239546  1.430421324362075 -0.1422530463333789 0.0006438225420573964  1.443375672974065 -0.09622504486493764 0.09622504486493764  0.7321510998862281 0.5624492232270197 0.3646846381716035  0.9239002426432321 0.3480246702761787 0.1811782883685  0.7490852309803118 0.4095827285081708 0.1339143819021366  0.9285858048943815 0.6335571890886311 0.2734941480292951  0.5604589232358378 -0.5698201261526246 -0.445758982164192  0.6089524280343109 -0.7218043571025563 -0.2041610728153083  0.6992001125134369 -0.7541456942161303 -0.5502812588103354  0.6274724868209266 0.4419785778654846 -0.5250198354585243  0.8756473641379455 0.3468289673768704 -0.5629197215258924  0.67802877664681 0.1808686458692327 -0.4046923641025996  0.5747192133026287 0.2418214339106003 -0.6661394725993455  0 -0.05589422902377143 -0.4966102514551253  0.2056253598613783 -0.1053038618535594 -0.6787933827793691  0.1556038154442484 0.06282062757538044 -0.6543309982444776  0.2724660772724383 0.01271359915602951 -0.4910330623919412  0.9865780311818615 0.5347283976096202 -0.3161606543928742  0.8204442367782485 0.5439521650280197 -0.46835255331516  0.8298883357700151 0.2747691377838339 -0.3083728461704535  0.6862435664967209 0.3812464258315117 -0.228747855498907  1.177314513331318 0.2155896063490769 0.2140622858922932  1.267656842582551 0.5005914574877968 0.2726043363799996  0.5728594645233351 0.3135209056411565 0.5449126792957779  0.5106867385450642 0.5036153923917321 0.4965240972019211  0.7698782860739618 0.3545773464498151 0.5878168661371025  1.257062485956698 -0.4638359972454 -0.342956295722521  1.188194666541641 -0.2467563208328611 -0.4932880249876783  1.208812547869822 -0.2451038235802088 -0.1523648506518715  1.405543018003129 -0.3155823461555193 -0.3144549970062264  0 -0.1321637113190494 -0.9912279018522304  0 -0.3021402933326705 -0.9528694918273042  0.2240193167333228 -0.2163747517189394 -0.968604487305365  0.1588608620926228 -0.2417277328284706 -0.7863213987186402  0.234290723282165 -0.4158101367292431 0.6068160964348613  0.336171426774712 -0.1961275532959101 0.7074104293225126  0.2157572393158068 -0.1977293037481581 0.4531390059122784  0.3402759051114709 0.1630546516396377 -0.7060477597699854  0.1632882031789302 0.196780254177258 -0.7862562160633888  0.231029003331308 0.1880338449615072 -0.4559977997563014  0.4728863797400071 -0.4933154510626057 0.5304985100819815  0.187854599331762 -0.6281900592232541 0.4987253373128265  0.1504625078742185 -0.4631455710889698 0.4631699097377626  0.5053019851007623 -0.4639188236666469 -0.07333804255252858  0.5526823878021767 -0.6967835074188571 0.215903246388164  0.6541336653852354 -0.7283429953560903 0.01682686734495902  0.6106765895285129 -0.435572044232048 0.1342135044502026  1.287900750276439 -0.4687881345125656 0.5967914885117886  1.473254424964647 -0.2014289120459823 0.6388974134251688  1.252201609832917 -0.1994817872140489 0.4924873900544187  0.6933873765617349 -0.4558378836670255 -0.5791550267835122  0.4866071064794875 -0.3834461891956515 -0.6005511129213282  0.6019697230687768 -0.6242818145703938 -0.7168889634012832  1.902820210771035 -0.06211515387208391 -0.2891430129447606  1.990339083299429 0.001064238785733084 -0.07652382797423923  1.724478368935762 -0.003788849933621816 -0.09935623650575776  1.954875178599839 -0.1249628659413422 -0.1581861500923273  0.9809979007020542 0.3576737082789349 0.535667969994543  1.241639713161487 0.2329691467692865 0.4709274800730408  1.03542332926206 0.2261833785676189 0.277619257236822  0.844968024044826 0.2915591042812161 0.85479271387891  0.9643254804467414 0.1075471943400586 0.8675308624173648  0.7528609021968682 0.08903098632416863 0.6868333670574929  0 -0.2092988896484911 -0.7083966808149078  1.404920008928814 0.3372989555460403 0.316767914436192  1.004219460199691 -0.2737979137568052 -0.4388250598374921  1.180873089276474 -0.4621305164745083 -0.6560168552866585  1.053305258761655 -0.3284868324358208 -0.7801286865200052  0.9712979390145692 -0.5110446369696806 0.4327235545709323  1.146293004560022 -0.6668284527145589 0.469882080380535  0.8963334118470608 -0.7310840957918627 0.5111265403121084  1.08206659020357 -0.7596894074461439 0.3528958016823166  0.8015085840467554 -0.3389768733860401 0.6685991538206634  0.925104953366791 -0.4648901631989753 0.7519021955945258  0.9984935472219151 -0.3065996581170283 0.5499211474208088  1.002288197777214 -0.2792071613298824 0.8153893475416765  1.215846416214816 -0.2524645935340363 0.7497327115816464  0.3024217308764339 0.4448958319181652 -0.8808605755070491  0.390139049844082 0.2930948946191007 -0.9351790364388617  0.7478274009820868 -0.4286314222864522 0.5038265581755443  0.2148561413125 0.491329266113953 -0.05528733303340339  0.2309383938052318 0.714092978138881 -0.2036113182046372  0.1975535218752708 0.6794042289099913 0.05518288617085648  0.3761572698058325 0.4709053903224183 -0.110071861452686  0 0.5090940372412278 -0.5349460340386839  0 0.5350603504932784 -0.8430433168771743  0 0.6738578937333988 -0.737915259701458  0.164109593248377 0.5761575785324918 -0.5890928788615022  0.2475029747273103 -0.4561046932550408 0.8800394901604827  0.3694925429576245 -0.5958501646405832 0.7791131291684588  0.4406799393760092 -0.3650559370457628 0.6810505410128649  0 0.4382264083498228 0.5937380410910144  0 0.7379152597014565 0.6738578937334002  0.1559289910125653 0.445628518864029 0.6984925326213108  0.2324810536730123 0.5213808955010337 0.5258435644279391  0.3555983309770547 0.656027019032849 0.3461651671211329  0.2458237569105728 0.8801511092168622 0.4561636277282752  0.1607954010233367 0.6785216544507058 0.4667873694261923  0.3826204414382912 0.7779301383454942 0.5949541429760784  1.52119605566691 0.1993844535737337 -0.3296462252473032  1.414311204796628 0.3898129177969151 -0.2057175795712648  1.35043553368913 0.31412477587753 -0.3988690910712985  1.281185985486842 0.1662780899176228 -0.1943758563769023  1.099075518775129 0.05947806630170303 0.3306302206363526  0.3679939443262019 0.3447617450768622 0.6523888179221276  0.4109508094888962 0.2773549013757027 0.3912230928899285  0.1373126243972625 0.5009352089527304 -0.4461785342859961  0.2664596187693265 0.6010832976391717 -0.4365657049749609  0.2179946197840175 0.4409807484602174 -0.2220003033063632  0.2617145123926756 0.3390154592910617 -0.3562749789872797  0.5824068775984312 -0.3170408450840759 0.3306350426033773  0.7199893230774794 -0.3705530655917506 0.2326552719422485  0.8358295522502738 -0.2669244509736641 0.3143056243869983  0.5587150980897445 0.6294294572528504 -0.01623015267248071  0.753690685110203 0.6532057608559532 -0.2369277096202369  0.7001301874755437 0.7550693058622343 -0.0524082716182921  0.6800782824703502 0.4417054734682031 -0.04452076045795449  0.4884308328800496 -0.9272425338669441 -0.2789182923255702  0.3906764030666174 -0.9712790424584049 -0.1262145572896986  0.6009334315497298 -0.9480231963115218 -0.09890104373476166  0.420071318585673 -0.7193185330298141 -0.02275610742170561  1.385707654592962 0.3976065221960926 -0.5961074699430042  1.219420193990472 0.4625196146528674 -0.3667717582939762  1.149364473949646 0.3130412125134983 -0.4806343490178561  1.195708172099174 -0.7474690340482983 -0.2799311705246049  1.219932523946796 -0.5119522484128803 -0.1401161375153302  0 0.4628593543202276 0.8855632312882982  0.3015827308425723 0.3699196515636318 0.916118113296736  0.2831250486531117 0.5320147666868361 0.8321945108773773  0.3825795555914422 -0.6690296309761865 -0.2952055242879837  0.4043090205097222 0.4000926521875504 0.2655017005394236  0.5978414449389082 0.3237928842626442 0.3209363851519929  0.2645148779899891 -0.338943586656435 0.3561994752880429  0.4219521826235639 -0.4004970037301178 0.2625370852546315  0.2094134450411068 -0.427547835839946 0.2479337980438358  0.1857857161792982 0.4082826524643675 -0.7114865320202091  0.4350093809141001 -0.08779074384838936 -0.7057378089671015  0.621
[...]
<PointData  Vectors="state-0"> 
<DataArray  type="Float64"  Name="state-0"  NumberOfComponents="3" format="ascii">2.6380579057739967e-02 1.8187344704731920e-02 4.7844672977400943e-02  2.2070297993256979e-02 1.6255531964792798e-02 5.3160540520831509e-02  2.0250263448764395e-02 -6.6353692047032321e-03 3.0175571088926826e-02  2.5675012343608503e-02 -9.6083191774953922e-03 5.7101417610549293e-02  7.6528718109573832e-03 -8.1981267049511725e-02 1.1163574827855870e-02  4.3526007204369669e-03 -7.7190054246101245e-02 1.2488476043260994e-02  7.7257928058494406e-03 -5.3142546332185105e-02 1.4984058605565337e-02  7.8542129186623399e-03 -5.0234055630922203e-02 2.5851680732416598e-02  4.6098239535989446e-02 2.8671511665989254e-02 1.0273598977694269e-01  2.4119270476460480e-02 3.2987749753677534e-02 4.9675821844635482e-02  3.8640903031999428e-02 1.2452791421588902e-02 1.1489337958866160e-01  4.6803029817342544e-02 -1.4711093384233620e-02 1.0592131114908718e-01  1.9226591337799675e-02 -1.8282776069292406e-02 1.7130961642196720e-02  2.6510848621884756e-02 -2.1811054134537294e-02 4.9632483196046975e-02  2.1366439759828187e-02 -2.7099193606256178e-02 7.9454827922823840e-03  2.0292736384238872e-02 -2.3562176149246914e-02 2.0735934812784299e-02  0.0000000000000000e+00 -1.3536755841103387e-01 1.0965636608607011e-02  0.0000000000000000e+00 -9.1436887804221018e-02 -3.3069050317364339e-02  0.0000000000000000e+00 -7.0721140440292193e-02 -6.6911538359969852e-02  1.6697304416227413e-03 -8.9403296211344088e-02 -3.8162854721961938e-02  0.0000000000000000e+00 -5.3338333592733177e-02 7.6792957197693121e-02  5.4435403176490461e-03 -3.9067373036228516e-02 6.7743531666713999e-02  1.4303898230348824e-03 -5.7985696717162409e-02 8.4402502148626768e-02  5.5118578205988833e-03 -2.8172889957706993e-02 7.0840524382593029e-02  2.4753463466060888e-02 2.0013365659375695e-02 -2.8555097792507540e-02  2.8119778278235981e-02 5.8688984184316395e-02 -1.8618070210432301e-02  1.0835763597058060e-01 8.0012988397310025e-02 7.6691125997422702e-03  1.0171860445232399e-01 4.8705548966705044e-02 6.1216951335315413e-02  2.2077848856116123e-02 -5.3228411439692654e-02 -3.3385758197878389e-02  2.5201848355481254e-02 -4.0935752394650457e-02 5.7519863447992540e-03  2.7811900786762198e-02 -5.3715341979177503e-02 -2.4588394324258869e-02  5.1555672443306957e-02 -8.9673226632927441e-02 -6.5774292727272268e-02  5.8684272863934128e-02 -1.7335195560374585e-02 4.2995233569064761e-02  1.7019437796056755e-01 -2.9967055407211442e-03 3.3771684567535293e-02  1.6851110816189960e-01 -5.6838076646624595e-02 -3.2060139775335894e-02  1.5054587648467818e-01 -4.2034520888368454e-02 1.7336861462522009e-02  1.3472389697328252e-02 5.6577399497262627e-02 3.8710934793326990e-02  4.7964451628402453e-02 9.0236993492908257e-02 7.0366612263847120e-02  3.1684926392800433e-02 1.0428283937868750e-01 5.6931173868776989e-02  2.2785067670340328e-02 4.6440943844617021e-02 3.6040847709771224e-03  1.3477215836942820e-02 -6.0246387240817691e-02 -4.3750917223948319e-02  1.5531761039389589e-02 -4.9012871585424188e-02 -8.9829081848118338e-03  1.3904541507282321e-02 -3.5279576019737365e-02 -2.5641843270767559e-02  1.2185916185963932e-02 4.7508298757749944e-02 -4.8267476093950802e-02  2.1524644107005553e-02 2.6966528932480652e-02 -5.0581008431957140e-02  2.9710620288529655e-02 6.2165766729522086e-02 -1.0667224510931386e-01  1.6497127620181032e-02 3.1183492185674455e-02 -6.3305630388418840e-02  0.0000000000000000e+00 -3.6215784553214884e-02 -1.2556226803034537e-01  2.8205762232539223e-03 1.5853005900752882e-02 -9.2331366926218017e-02  3.5581644218079930e-03 3.3820396075645763e-02 -9.2705613759249184e-02  9.0233917785074603e-03 -2.3573454828139115e-03 -1.2719789709644824e-01  2.4535905866973913e-02 4.2391256447426973e-02 -3.8271517112920359e-02  2.4592481839445582e-02 3.3437305637396469e-02 -4.4007092047351502e-02  3.9246313881700252e-02 9.3933089493593469e-02 -7.4552100024150345e-02  2.8846000926028618e-02 1.0705563023020033e-01 -4.6057163463502152e-02  7.6486924146426175e-02 4.4628813153055807e-02 7.7126582015974304e-02  3.4964054980233500e-02 4.2440013752317360e-02 -1.9573277556380296e-02  1.3217019166866219e-02 3.5946998208384109e-02 8.6797627935647756e-02  8.9538196036740309e-03 4.4893668461519542e-02 6.1235445269053945e-02  2.1378547529430261e-02 4.0609411221554016e-02 5.2410545509775579e-02  3.6648313129122194e-02 -3.9643200751928682e-02 3.1310582927278202e-03  2.8928850011232479e-02 -3.4512828872566063e-02 -3.9807898502107239e-02  8.6686782638363991e-02 -6.1701345599840314e-02 -7.1842794331135273e-02  3.9103964978815596e-02 -4.3785546198838371e-02 -2.4631209743001429e-02  0.0000000000000000e+00 3.2728242436700044e-04 -4.7437740206393277e-02  0.0000000000000000e+00 -1.0176199517376317e-02 -5.2949826274409563e-02  8.7755647682400632e-03 -5.9047430677635722e-03 -4.7393243421531353e-02  5.4653161706040166e-03 3.1610319872747952e-03 -8.5077872656206491e-02  5.8038317322890876e-03 -7.0554020187928709e-02 4.9311884603979804e-02  6.9617236581744754e-03 -4.4927107033477347e-02 6.3104619104280557e-02  1.4445073346068358e-03 -4.5371186106002860e-02 1.1755071562518801e-01  1.1681957436560836e-02 3.6917831967297060e-02 -6.7277227955334334e-02  4.8189545997337907e-03 3.9058622424788879e-02 -5.2568403317093018e-02  7.7148974407881500e-03 4.3048635746786051e-02 -1.2673283400458812e-01  1.1524636442256155e-02 -5.9612935063887616e-02 4.4432638949759372e-02  3.8181005026533699e-03 -7.8853985132139467e-02 3.1044607877399166e-02  1.9220154106956496e-03 -8.9529417417961055e-02 4.9498628868647289e-02  2.0132082917220764e-02 -1.3050711726368161e-01 -3.2759421565215829e-02  1.5519308377099221e-02 -6.1586160243718373e-02 1.3492713360886916e-02  1.7814479161289535e-02 -6.0155211887165341e-02 4.5891144035698495e-03  2.8330515660045266e-02 -1.2685632369726493e-01 2.1982936141716401e-02  1.7273565184147778e-02 -1.8443990420464684e-02 2.7706424554968304e-02  2.0444666411635497e-02 -3.2210744828744240e-03 3.0191011984234493e-02  2.5312096299482938e-02 1.8272846047237262e-02 5.0898128740255039e-02  1.6232251270523045e-02 -4.1386753567020658e-02 -3.8357543733366591e-02  9.6688687274132084e-03 -4.1903414407151771e-02 -6.6895103196632333e-02  1.5151042775753659e-02 -3.2485424588708366e-02 -4.1135699136741644e-02  2.3158309958937043e-02 -4.9292568578073919e-03 -1.7033653806740712e-02  3.2532905873380771e-02 -5.0612423546646523e-03 -3.0038266025132305e-03  6.2829712764522594e-02 1.0678075583605031e-02 -3.2481807970947185e-02  2.2021111149627397e-02 -1.1253124759576004e-02 -1.5625541241750989e-03  2.4559334633182408e-02 4.2368571146075999e-02 3.0487516328758939e-02  2.4546173138085645e-02 4.5828065789777141e-02 3.1376191597040783e-02  6.1197553277478965e-02 4.3576054955633714e-02 8.8862100262558891e-02  1.3216758435257454e-02 1.4222943576641174e-02 3.7777480386181415e-02  1.6180399864433193e-02 7.1788363796108845e-03 4.2745422502697132e-02  2.0055290427934833e-02 1.3851330134323337e-02 5.7505879348925926e-02  0.0000000000000000e+00 2.0572965765064358e-02 -9.3269815502981676e-02  2.9788242325204817e-02 4.2396408526923710e-02 1.0875938997525364e-02  2.9337440796470469e-02 -3.7924003714521155e-02 -6.8779191442979823e-02  1.7496038438844543e-02 -1.8618870282419743e-02 -2.2843264312681532e-02  1.3633693229008891e-02 -1.3275187505959365e-02 -2.7210802446171904e-02  2.3235518631078488e-02 -8.3878234905167843e-03 4.4154117024033636e-02  1.9555642369016864e-02 -3.3183122201208851e-02 2.9497660669390663e-02  1.2579092685980337e-02 -3.2830647147596155e-02 2.4315875120852610e-02  1.6581278777813742e-02 -3.1259091649550139e-02 1.6350909810225318e-02  2.1011260073980777e-02 -1.5213347445961452e-02 5.1220883723568186e-02  1.5240419058066791e-02 -2.1604867140650918e-02 3.8333325023964741e-02  2.2707406080033552e-02 -8.8586355621178350e-03 5.6926445128452810e-02  1.6374817641534468e-02 -1.1485785271067641e-02 4.1673575079452178e-02  1.9058568635771073e-02 -8.9790331583895402e-03 4.0062622249736314e-02  3.9621988476064530e-03 2.4006923186570540e-02 -4.2431513979794208e-02  7.0983743867662251e-03 2.0045616634373917e-02 -4.8814957492089084e-02  2.0378864890631503e-02 -4.5391063724843167e-02 5.7751248558137770e-02  4.5611744496434669e-03 1.2219191233703838e-01 -2.0237274790618123e-02  3.8155374301722346e-03 8.1788571543037716e-02 1.0080915240048172e-02  3.5473863159421648e-03 8.5225435124304125e-02 3.8710221267770469e-02  1.1779579043639032e-02 1.2382062138260243e-01 -2.5763867657164409e-02  0.0000000000000000e+00 9.4189315887464070e-02 -3.1760529940354817e-02  0.0000000000000000e+00 3.1623400666564785e-02 -4.0762896041725880e-02  0.0000000000000000e+00 4.4511151704305821e-02 -4.3132818798174245e-02  3.3359802378518945e-03 7.1091266378866966e-02 -4.1500074258622247e-02  4.5738748559599239e-03 -2.8566327921046138e-02 4.6244332449408634e-02  8.1069364670881949e-03 -3.6453926566755147e-02 4.0809922320113365e-02  1.3536886022791324e-02 -4.8059535263241478e-02 5.6446620702306216e-02  0.0000000000000000e+00 8.7782678614292085e-03 9.9340809863245061e-02  0.0000000000000000e+00 3.1533156918847380e-02 3.6353069476386057e-02  4.0645239909161976e-03 1.2015049588849082e-02 8.3301389768881837e-02  5.7217110603257435e-03 2.8193684312424857e-02 7.7360626356683532e-02  6.6477491815274941e-03 5.1696995741205648e-02 5.6374733922230955e-02  6.4716318047091216e-03 4.6428819191114780e-02 2.8212528430576162e-02  2.1250317231624287e-03 4.8663777018573259e-02 6.8550807060883026e-02  6.6249391898439442e-03 3.7284131251945039e-02 3.4561437168397761e-02  4.2818064545525718e-02 1.1415241341104580e-02 -4.1698447600922534e-02  3.4746151795043957e-02 2.8743873178296034e-02 -4.4486238480587671e-02  3.9582182073002653e-02 4.6845559390326997e-03 -4.4798485559162993e-02  9.0587634563803074e-02 6.9695813580253424e-02 -4.6080026865011302e-02  6.7869137172575394e-02 -6.9016419913723176e-03 9.5933117445120092e-02  8.1703294536101517e-03 1.4510663049670277e-02 7.7448870639724013e-02  1.1079496688466977e-02 6.7675795639067643e-02 1.1116435243062549e-01  2.3876127590108445e-03 9.3958989971315840e-02 -3.5610424514198685e-02  6.1529716928495366e-03 7.5719275805923400e-02 -2.2242151544513863e-02  4.9298564979642972e-03 1.0734840430910401e-01 -6.3470757657133212e-02  8.0747290705798641e-03 8.5988695198752310e-02 -9.2980166056085750e-02  2.2910818147491824e-02 -9.9411440981566138e-02 8.5796193553158401e-02  3.5053485871339801e-02 -1.1244609290984721e-01 4.9170981071831571e-02  4.5311747706532790e-02 -9.0389859081460300e-02 7.4340095817176502e-02  1.0113380290143715e-02 9.0749746616156590e-02 1.1908803298732612e-02  1.6532138996173500e-02 5.1518264756042216e-02 -2.0977136767350236e-02  2.1717722400722436e-02 6.4546807307031884e-02 -4.7460751990129890e-03  2.7871211361504566e-02 1.2131474653348616e-01 6.5696287834391721e-03  1.2814452912873980e-02 -5.0540395968425182e-02 -1.6813804710568852e-02  7.7870076688677271e-03 -5.2004025540688399e-02 -7.9037933285607178e-03  1.3068632133006127e-02 -5.0345451343538385e-02 -5.8424436066073834e-03  6.9827972046605366e-03 -7.9202098623232686e-02 -1.3880986813955659e-02  2.5352457579696737e-02 1.4407865969779905e-02 -2.9283387099294192e-02  3.5107507875187592e-02 1.1151083509592621e-02 -4.2880575470527864e-02  2.7901028520797285e-02 1.5240860276630368e-02 -4.8973000055471498e-02  2.1274074511438819e-02 -3.2200039494262950e-02 -1.1036047854724845e-02  2.9610735431305796e-02 -5.0328499079476070e-02 9.6587596461178010e-03  0.0000000000000000e+00 1.5740412182215280e-02 4.7799061066521487e-02  8.0970457254594119e-03 1.6346682545923339e-02 5.5778531629646293e-02  5.9475710665729733e-03 2.3579967077485383e-02 4.4802840626099093e-02  8.8132695766228973e-03 -6.8041286485935659e-02 -4.4019010650103642e-02  1.1492062979525439e-02 1.0096151100123671e-01 7.8229971332547527e-02  2.3161054465934933e-02 7.4699776309027147e-02 9.6703624517315734e-02  2.7225145073484186e-03 -9.1098377641826808e-02 9.5273871436293581e-02  1.2838102446189242e-02 -1.1639991421357143e-01 6.8540906188187867e-02  3.3030671867364104e-03 -1.0679254949319542e-01 6.9421957029698583e-02  4.7238470574506534e-03 4.1534679802213870e-02 -3.5896577949401626e-02  1.0701789791876522e-02 7.6805386162948882e-03 -8.0975358734530795e-02  3.7363467484483898e-03 -6.4636801838442969e-03 -2.2306896505819101e-03  1.8326300967018903e-02 -5.6329577128957616e-03 -7.2215730849451459e-02  2.5411607715201338e-02 -1.4408460672079187e-02 -1.3515542757681290e-01  2.8322299707062876e-02 3.6957872956213847e-02 -3.8847245823491972e-02  2.4125465918738355e-02 2.9671504854741411e-02 -6.4777041325268904e-03  1.5401309370795740e-02 -3.3910911665382883e-02 1.9163743308370767e-02  1.8822653829446812e-02 -3.9388226510825429e-02 1.4306702947818876e-02  1.4873367964171281e-02 -4.4201394832891996e-02 1.3684139735810473e-02  2.4195482225776072e-02 -4.5211693163205342e-02 2.0458221976282540e-02  1.2041120149810049e-02 5.1977875683716965e-02 3.2429309382768258e-02  4.8902619480357028e-03 -1.7801417517742696e-02 -6.8216829059567871e-02  6.3895934396111997e-03 -3.0435036227398765e-02 -4.2584746439880000e-02  5.7431550359977549e-03 -2.5151609849480269e-02 -4.6293333913380766e-02  8.0360519824025280e-03 -2.9795719921377913e-02 -3.8155078276019931e-02  1.9592265635846887e-02 2.8128368355105442e-02 1.3728071665272689e-02  1.9971698740452654e-02 3.0094130549144858e-02 7.1453840705545590e-03  9.4177962363767784e-03 5.7585521388761399e-02 -4.8179643193702111e-02  1.9442706266599611e-02 6.3323053687265998e-02 -5.0443857177508156e-03  4.6630250286745153e-02 1.1494134021714346e-01 -2.0458819655074442e-04  9.1749779786060425e-03 -1.3089097439607691e-01 1.9669340934888060e-02  2.0452257499499370e-02 1.0288494112053510e-01 -7.2769593659213899e-02  1.7989404366450142e-02 -1.4316801716619072e-02 2.4409643486247481e-02  0.0000000000000000e+00 -7.5749586052045959e-02 -1.0930338483935094e-01  0.0000000000000000e+00 -1.1775750507365776e-02 -9.1540169003077348e-02  1.1146134170213519e-03 -1.3683192429130442e-02 -7.4618589879548530e-02  3.8983792995098349e-03 -8.4073353583716245e-02 -9.9980787476197402e-02  3.8973914886128087e-03 -7.3448443691533735e-02 -5.0938005660706893e-02  0.0000000000000000e+00 5.3949267009839222e-02 -1.2161077033411287e-01  0.0000000000000000e+00 -5.8347585421649244e-02 -1.5317447760801671e-02  8.4357328518014345e-03 -5.6423841384624522e-02 -1.9710467941096443e-02  5.8691005028800210e-03 -5.2108030691016875e-02 -1.0803300721496663e-02  1.0702425720753882e-02 7.3636032616440930e-02 -1.2339893851763038e-03  4.6473563593737322e-03 9.3475926401760390e-02 -1.8559547375080140e-02  3.9481718709225445e-03 3.6859280057791544e-02 -1.1216762720537720e-02  2.1570834191795029e-03 1.0637015954182416e-01 6.6086374207826898e-02  2.1458128679764962e-03 6.4067196374639188e-02 7.8426111350158381e-02  1.4251703926513749e-02 5.8900038848697048e-03 -4.7682476760413976e-02  1.8002383470441821e-02 2.1487555391537564e-03 -4.1068111478124045e-02  2.1391358570064588e-02 1.4617910627276041e-02 -6.4646403933481048e-02  1.4630892619978301e-02 -7.9418771405411013e-03 -4.4700882159656619e-02  0.0000000000000000e+00 4.6144769379278326e-02 -8.1012889294704946e-02  3.3147351985160353e-03 4.8014655328460665e-02 5.6088408179903272e-02  1.2526011751404201e-02 -4.5608106963730244e-02 3.1927842117479337e-02  1.3760767534441009e-02 -3.7148364874250363e-02 3.5002240769079492e-02  1.7206633728845733e-02 -4.3032049921763960e-02 2.5768855064770255e-02  1.5247770036584157e-02 -4.2024042228543147e-02 -1.3461038425916496e-02  1.3983980060027761e-02 -4.1518885932319408e-02 1.9154256114595650e-03  2.1952336475647309e-02 -5.2418713502501650e-02 -2.6112633723596597e-04  1.5262071383374865e-02 6.0872554987581292e-03 6.0210317901433739e-02  1.6939196079999160e-02 -1.1554913931289249e-02 1.2924573223081204e-01  1.5527690318743417e-02 -1.3444461006462818e-02 7.4744275900526250e-02  1.2999387803156421e-02 -3.2872967994683810e-02 6.3646942909966336e-02  2.7500686355389874e-02 -2.1547667073946092e-02 1.2283577288413663e-01  9.9406136639636940e-03 -1.6387747287309705e-02 4.8238650194412924e-02  6.1398582774545548e-03 -5.4331954454686943e-02 7.6807539349976672e-03  8.3122104840687369e-03 -5.0892393488119476e-02 1.7130496935783949e-02  2.3958917784243250e-02 5.5553263178295655e-02 -8.3722183822137405e-03  2.0230579650679380e-02 -5.5393836122280436e-03 6.1565647785567404e-02  3.2094445593398462e-02 -9.1075670250063152e-03 8.8989734625791704e-03  2.1462595515313199e-02 -4.5868749722647792e-04 -2.0675825850539325e-03  6.8208417607397973e-02 -5.7458634960979853e-02 -7.9990794352661182e-02  1.9033664687993956e-02 1.8765187728942034e-02 3.2430175644013952e-02  1.7634720129760827e-02 8.5560283794197164e-03 3.5417261259351317e-02  1.3727103465584901e-02 7.6248789589871552e-02 -3.9177416950518233e-02  3.6383868353190858e-02 -1.9983263393335317e-02 -1.8514225787348119e-02  2.3795029747585940e-02 2.5657884877392898e-03 -2.6631453129699289e-02  1.9142880901853579e-02 6.9515761442484939e-04 -2.2522140774383522e-02  3.4877017572979771e-02 -1.0586453049305725e-02 -4.1078438244160978e-02  2.8254712840854613e-02 -8.8561609523677039e-03 3.7899198845442773e-02  1.5790768228314885e-02 -2.4940260285577307e-02 -9.9662252958449288e-03  2.0080732644520091e-02 -2.1173268942653017e-02 -6.1542582487845833e-03  1.5121818212763859e-02 -1.7827749322858449e-02 -8.3293573641660453e-03  2.0458727892006642e-02 2.6477067952075297e-02 6.7590486301415554e-03  2.7333698705641798e-02 4.4918223184451864e-02 -2.4306543652801479e-02  2.3290921950174306e-02 2.0868011412301525e-02 6.0539866210293988e-03  3.0538540210529923e-02 4.3016239272119457e-02 2.2279112587253670e-02  0.0000000000000000e+00 7.1441570650595115e-02 -5.5347927685507781e-02  0.0000000000000000e+00 2.0178570436002363e-02 -5.0565790109883504e-02  0.0000000000000000e+00 2.6726232233974925e-02 -5.0929262929797964e-02  1.6434020018143234e-02 3.3413517952907743e-02 1.2304698949067536e-01  2.4835675532530844e-02 2.2956394778671382e-02 1.2055738739095846e-01  6.2783791911806153e-03 4.9806403061166411e-02 -1.3350242160050711e-02  0.0000000000000000e+00 4.1251360949889904e-02 -7.0349598646482553e-03  6.0586110676189757e-03 4.8722106826611843e-02 -5.9805808138318779e-03  8.0244602704251863e-03 -1.9672281671288303e-02 7.7601798048807152e-02  1.0160805094938493e-02 -2.3302483233166400e-03 4.9670565556684823e-02  6.4700796264596294e-02 2.0751300747160483e-02 -8.6355547293906390e-02  3.2026851223087564e-02 -2.3830458348882359e-02 -2.6764605356284086e-02  8.1337515551035078e-02 2.4682729477002240e-02 -7.9450153084845321e-02  1.5727129070781241e-02 3.7726669474313572e-02 -1.6935087101689436e-02  1.3517788893330386e-02 4.4213847832125355e-02 -7.4382550733105993e-03  1.4760814027522129e-02 3.7278745408596665e-02 -2.6470866412305991e-02  0.0000000000000000e+00 -7.9486803922550947e-02 5.4436887518194199e-02  5.2791475288044018e-03 2.9837832324788018e-02 -7.9039116084941768e-02  1.6100247497278029e-02 3.5716947494051673e-02 1.7107373075206298e-02  1.4937066959535323e-02 3.9891451219827061e-02 1.1716066628832164e-02  1.6905275982606778e-02 3.7601928781303945e-02 -3.1824215153971420e-03  2.8584586666261645e-02 4.7757677449010320e-02 -3.0254903117439971e-02  2.0210258549850244e-02 -1.0415240577577468e-02 -2.7582969504219748e-02  2.2932870461697657e-02 -5.1427755872423620e-03 -2.7101014281421941e-02  3.2445535156995789e-02 -3.1945105782599112e-02 -3.3361984419443581e-02  2.7615309526027209e-02 -5.8065016347435917e-02 2.5245546140104731e-02  6.6112559085066344e-02 -9.0822026507552417e-02 -2.9558641285412829e-02  5.0846352356895760e-02 -1.0877091736815447e-01 -2.2490377247079415e-02  2.2881861061772427e-02 3.9120242180028901e-02 -4.2759371070564718e-03  1.9439018087479474e-02 3.9486712007535098e-02 -1.1162193047810267e-02  1.1954088730289129e-03 1.9296046028528538e-02 9.6781788579747965e-02  9.0735464904304515e-03 6.1370735247129646e-02 3.2146609050939898e-02  1.7025327562230051e-02 1.1935812909818615e-01 3.1607625143098429e-02  7.6