<?xml version="1.0"?>
<VTKFile type="UnstructuredGrid"  version="0.1"  >
<UnstructuredGrid>
<Piece  NumberOfPoints="562" NumberOfCells="2167">
<Points>
<DataArray  type="Float64"  NumberOfComponents="3"  format="ascii">1.368988780486386 -0.3330614804626422 0.3812091262482924  1.457971735921389 -0.1022985678317614 0.3848351862271924  1.610427907917255 -0.2543337204802068 0.5283220094529932  1.517018421924314 -0.2975870322441377 0.2373535790744415  0.2896649584838891 -0.6565336317944969 0.3023309575633568  0.1476062501325057 -0.7596307241376263 0.3283146094026839  0.2103887490757956 -0.916837934661527 0.3815037813901131  0.2689768990101102 -0.8331508488021908 0.5326326663736717  0.9156822098122387 0.1728678968738864 0.3547279359267569  0.9955038627747099 0.1533306194452782 0.6087026577562188  0.7890673547573852 0.1092600253823605 0.4080960165386402  0.9145731457487908 0.02582743292350364 0.3935106194697764  1.555529446910997 -0.5403673213763167 0.3112575692626874  1.348103006996482 -0.462351674863219 0.1749673809371412  1.400987129938871 -0.69735066861689 0.1355899121124687  1.379596868832529 -0.6110590497219095 0.3769781373204191  0 -0.4990262892337586 -0.03118914320056031  0 -0.7290746446371459 0.09885523113658878  0 -0.717672921293292 -0.1906601281732726  0.1968984162950436 -0.7040029471989069 -0.07369861360184334  0 -0.04626762634821223 0.7372759069896635  0.1747349115361219 -0.1710428392996126 0.8075209349320995  0.1736439618246974 -0.1962945897661325 0.6287261280994423  0.1554956487469918 0.01915161770726388 0.8205218561784148  1.468118261285947 0.4388895086210086 0.1612631929613552  1.314649208445651 0.4683262063503433 0.04261620133015324  1.344984587319364 0.2109573947886681 -0.02958325590058262  1.313873754896346 0.1816089619152257 0.1471166805105471  0.8054134969450556 -0.533449770498696 -0.3926139635083312  1.023959850515393 -0.6045695018332022 -0.2205179401063885  1.05215698719499 -0.4565551953633328 -0.3958586963103667  0.8906623628738856 -0.3599786025326254 -0.1746980748537972  1.697689701537584 -0.1214082871572868 0.1246812640999428  1.488464593112258 -0.01630978270888243 0.02506236650239546  1.430421324362075 -0.1422530463333789 0.0006438225420573964  1.443375672974065 -0.09622504486493764 0.09622504486493764  0.7321510998862281 0.5624492232270197 0.3646846381716035  0.9239002426432321 0.3480246702761787 0.1811782883685  0.7490852309803118 0.4095827285081708 0.1339143819021366  0.9285858048943815 0.6335571890886311 0.2734941480292951  0.5604589232358378 -0.5698201261526246 -0.445758982164192  0.6089524280343109 -0.7218043571025563 -0.2041610728153083  0.6992001125134369 -0.7541456942161303 -0.5502812588103354  0.6274724868209266 0.4419785778654846 -0.5250198354585243  0.8756473641379455 0.3468289673768704 -0.5629197215258924  0.67802877664681 0.1808686458692327 -0.4046923641025996  0.5747192133026287 0.2418214339106003 -0.6661394725993455  0 -0.05589422902377143 -0.4966102514551253  0.2056253598613783 -0.1053038618535594 -0.6787933827793691  0.1556038154442484 0.06282062757538044 -0.6543309982444776  0.2724660772724383 0.01271359915602951 -0.4910330623919412  0.9865780311818615 0.5347283976096202 -0.3161606543928742  0.8204442367782485 0.5439521650280197 -0.46835255331516  0.8298883357700151 0.2747691377838339 -0.3083728461704535  0.6862435664967209 0.3812464258315117 -0.228747855498907  1.177314513331318 0.2155896063490769 0.2140622858922932  1.267656842582551 0.5005914574877968 0.2726043363799996  0.5728594645233351 0.3135209056411565 0.5449126792957779  0.5106867385450642 0.5036153923917321 0.4965240972019211  0.7698782860739618 0.3545773464498151 0.5878168661371025  1.257062485956698 -0.4638359972454 -0.342956295722521  1.188194666541641 -0.2467563208328611 -0.4932880249876783  1.208812547869822 -0.2451038235802088 -0.1523648506518715  1.405543018003129 -0.3155823461555193 -0.3144549970062264  0 -0.1321637113190494 -0.9912279018522304  0 -0.3021402933326705 -0.9528694918273042  0.2240193167333228 -0.2163747517189394 -0.968604487305365  0.1588608620926228 -0.2417277328284706 -0.7863213987186402  0.234290723282165 -0.4158101367292431 0.6068160964348613  0.336171426774712 -0.1961275532959101 0.7074104293225126  0.2157572393158068 -0.1977293037481581 0.4531390059122784  0.3402759051114709 0.1630546516396377 -0.7060477597699854  0.1632882031789302 0.196780254177258 -0.7862562160633888  0.231029003331308 0.1880338449615072 -0.4559977997563014  0.4728863797400071 -0.4933154510626057 0.5304985100819815  0.187854599331762 -0.6281900592232541 0.4987253373128265  0.1504625078742185 -0.4631455710889698 0.4631699097377626  0.5053019851007623 -0.4639188236666469 -0.07333804255252858  0.5526823878021767 -0.6967835074188571 0.215903246388164  0.6541336653852354 -0.7283429953560903 0.01682686734495902  0.6106765895285129 -0.435572044232048 0.1342135044502026  1.287900750276439 -0.4687881345125656 0.5967914885117886  1.473254424964647 -0.2014289120459823 0.6388974134251688  1.252201609832917 -0.1994817872140489 0.4924873900544187  0.6933873765617349 -0.4558378836670255 -0.5791550267835122  0.4866071064794875 -0.3834461891956515 -0.6005511129213282  0.6019697230687768 -0.6242818145703938 -0.7168889634012832  1.902820210771035 -0.06211515387208391 -0.2891430129447606  1.990339083299429 0.001064238785733084 -0.07652382797423923  1.724478368935762 -0.003788849933621816 -0.09935623650575776  1.954875178599839 -0.1249628659413422 -0.1581861500923273  0.9809979007020542 0.3576737082789349 0.535667969994543  1.241639713161487 0.2329691467692865 0.4709274800730408  1.03542332926206 0.2261833785676189 0.277619257236822  0.844968024044826 0.2915591042812161 0.85479271387891  0.9643254804467414 0.1075471943400586 0.8675308624173648  0.7528609021968682 0.08903098632416863 0.6868333670574929  0 -0.2092988896484911 -0.7083966808149078  1.404920008928814 0.3372989555460403 0.316767914436192  1.004219460199691 -0.2737979137568052 -0.4388250598374921  1.180873089276474 -0.4621305164745083 -0.6560168552866585  1.053305258761655 -0.3284868324358208 -0.7801286865200052  0.9712979390145692 -0.5110446369696806 0.4327235545709323  1.146293004560022 -0.6668284527145589 0.469882080380535  0.8963334118470608 -0.7310840957918627 0.5111265403121084  1.08206659020357 -0.7596894074461439 0.3528958016823166  0.8015085840467554 -0.3389768733860401 0.6685991538206634  0.925104953366791 -0.4648901631989753 0.7519021955945258  0.9984935472219151 -0.3065996581170283 0.5499211474208088  1.002288197777214 -0.2792071613298824 0.8153893475416765  1.215846416214816 -0.2524645935340363 0.7497327115816464  0.3024217308764339 0.4448958319181652 -0.8808605755070491  0.390139049844082 0.2930948946191007 -0.9351790364388617  0.7478274009820868 -0.4286314222864522 0.5038265581755443  0.2148561413125 0.491329266113953 -0.05528733303340339  0.2309383938052318 0.714092978138881 -0.2036113182046372  0.1975535218752708 0.6794042289099913 0.05518288617085648  0.3761572698058325 0.4709053903224183 -0.110071861452686  0 0.5090940372412278 -0.5349460340386839  0 0.5350603504932784 -0.8430433168771743  0 0.6738578937333988 -0.737915259701458  0.164109593248377 0.5761575785324918 -0.5890928788615022  0.2475029747273103 -0.4561046932550408 0.8800394901604827  0.3694925429576245 -0.5958501646405832 0.7791131291684588  0.4406799393760092 -0.3650559370457628 0.6810505410128649  0 0.4382264083498228 0.5937380410910144  0 0.7379152597014565 0.6738578937334002  0.1559289910125653 0.445628518864029 0.6984925326213108  0.2324810536730123 0.5213808955010337 0.5258435644279391  0.3555983309770547 0.656027019032849 0.3461651671211329  0.2458237569105728 0.8801511092168622 0.4561636277282752  0.1607954010233367 0.6785216544507058 0.4667873694261923  0.3826204414382912 0.7779301383454942 0.5949541429760784  1.52119605566691 0.1993844535737337 -0.3296462252473032  1.414311204796628 0.3898129177969151 -0.2057175795712648  1.35043553368913 0.31412477587753 -0.3988690910712985  1.281185985486842 0.1662780899176228 -0.1943758563769023  1.099075518775129 0.05947806630170303 0.3306302206363526  0.3679939443262019 0.3447617450768622 0.6523888179221276  0.4109508094888962 0.2773549013757027 0.3912230928899285  0.1373126243972625 0.5009352089527304 -0.4461785342859961  0.2664596187693265 0.6010832976391717 -0.4365657049749609  0.2179946197840175 0.4409807484602174 -0.2220003033063632  0.2617145123926756 0.3390154592910617 -0.3562749789872797  0.5824068775984312 -0.3170408450840759 0.3306350426033773  0.7199893230774794 -0.3705530655917506 0.2326552719422485  0.8358295522502738 -0.2669244509736641 0.3143056243869983  0.5587150980897445 0.6294294572528504 -0.01623015267248071  0.753690685110203 0.6532057608559532 -0.2369277096202369  0.7001301874755437 0.7550693058622343 -0.0524082716182921  0.6800782824703502 0.4417054734682031 -0.04452076045795449  0.4884308328800496 -0.9272425338669441 -0.2789182923255702  0.3906764030666174 -0.9712790424584049 -0.1262145572896986  0.6009334315497298 -0.9480231963115218 -0.09890104373476166  0.420071318585673 -0.7193185330298141 -0.02275610742170561  1.385707654592962 0.3976065221960926 -0.5961074699430042  1.219420193990472 0.4625196146528674 -0.3667717582939762  1.149364473949646 0.3130412125134983 -0.4806343490178561  1.195708172099174 -0.7474690340482983 -0.2799311705246049  1.219932523946796 -0.5119522484128803 -0.1401161375153302  0 0.4628593543202276 0.8855632312882982  0.3015827308425723 0.3699196515636318 0.916118113296736  0.2831250486531117 0.5320147666868361 0.8321945108773773  0.3825795555914422 -0.6690296309761865 -0.2952055242879837  0.4043090205097222 0.4000926521875504 0.2655017005394236  0.5978414449389082 0.3237928842626442 0.3209363851519929  0.2645148779899891 -0.338943586656435 0.3561994752880429  0.4219521826235639 -0.4004970037301178 0.2625370852546315  0.2094134450411068 -0.427547835839946 0.2479337980438358  0.1857857161792982 0.4082826524643675 -0.7114865320202091  0.4350093809141001 -0.08779074384838936 -0.7057378089671015  0.621
[...]
<PointData  Vectors="state-0"> 
<DataArray  type="Float64"  Name="state-0"  NumberOfComponents="3" format="ascii">2.7739187496012469e-02 2.9822526032920314e-02 6.8616264532145227e-02  2.4151203296817109e-02 2.1913988056876270e-02 6.6602855010300818e-02  2.3246215448321277e-02 -4.9669478039244073e-03 3.5331976264474534e-02  2.7908782169616092e-02 -8.8221145780086694e-03 7.3334462503727590e-02  1.0017568556258547e-02 -1.0242357048790567e-01 -2.5843935590299776e-03  5.0257127581868049e-03 -9.6245552327104550e-02 6.1926025148780744e-03  9.4886454243128179e-03 -6.4190744808456476e-02 1.6219467927397889e-02  9.8315280157303588e-03 -5.9685743243283941e-02 2.9595002817960493e-02  5.7244480695577304e-02 1.4864836467368574e-02 1.2609812174398846e-01  2.6704873037311068e-02 4.2281335029007237e-02 6.0586420575918405e-02  4.8769443174555137e-02 -5.9287432423805958e-03 1.3711701394686113e-01  5.8573600752678687e-02 -3.6337839920515307e-02 1.2257899935119106e-01  2.1123748411073756e-02 -1.9649233854901312e-02 2.0506925287535682e-02  2.7682098763224659e-02 -2.4210326618736885e-02 6.5728469773074602e-02  2.4536705809008935e-02 -3.0995603331763572e-02 1.1759278849785077e-02  2.2304288856300123e-02 -2.5521776049598766e-02 2.4677547731245121e-02  0.0000000000000000e+00 -1.5724566038120541e-01 -9.8828749704873795e-03  0.0000000000000000e+00 -1.0775937236786982e-01 -5.5097081645049249e-02  0.0000000000000000e+00 -7.6057154831380799e-02 -9.3397092051452371e-02  3.0012855978362942e-03 -1.0145149054639291e-01 -6.1690336062563224e-02  0.0000000000000000e+00 -7.9978002332545498e-02 8.7325801379474835e-02  6.8481535169392337e-03 -5.6898964285400852e-02 7.7645627127847519e-02  2.7908168910918850e-03 -8.8441441011593555e-02 9.1475072200690566e-02  7.5180878154877144e-03 -4.4044731923039419e-02 8.4351378269382590e-02  3.1135509207142337e-02 3.2359610034040462e-02 -4.3678872045790795e-02  3.1356336942206922e-02 7.3543689502694964e-02 -2.2470793147571791e-02  1.2887765974979720e-01 9.0279505443744024e-02 2.3588865177340317e-02  1.2129557865696154e-01 4.5157460085950264e-02 7.8663926294269493e-02  2.6793493147302273e-02 -6.0313248379259131e-02 -4.3141952266504628e-02  2.9798362092534419e-02 -5.3534702720801020e-02 1.2309111214100815e-02  3.3264937160117546e-02 -6.3206575323411757e-02 -2.8122579505123386e-02  6.4151614436220222e-02 -9.2272385279711586e-02 -9.3291892524805922e-02  7.6666935443764725e-02 -2.0799976028982394e-02 4.9673877889545033e-02  2.0248059140583877e-01 -8.3423086747312289e-03 4.1766554411003992e-02  1.9779675676348193e-01 -5.4942057175595568e-02 -4.2921346884815005e-02  1.7868924908124195e-01 -4.9095947665595656e-02 1.4034546047171758e-02  1.5769129937333152e-02 6.3558829134449935e-02 5.4082568118515417e-02  5.9154921813227401e-02 9.3046910357355517e-02 9.8353646398586847e-02  4.0184216969291919e-02 1.1303873217737316e-01 8.5628715785771636e-02  2.7883445503623080e-02 5.9178927030411985e-02 4.7860305663769754e-04  1.6462372178786076e-02 -6.4955198836208455e-02 -5.7867103194116434e-02  1.9768678251510404e-02 -6.0786003762997212e-02 -1.2733427045565980e-02  1.6130228912003611e-02 -3.9534879931941498e-02 -2.9374113342891792e-02  1.4524185575245466e-02 6.4056438605239324e-02 -5.1518929517348294e-02  2.5883262844065003e-02 3.3714023631947594e-02 -5.8454555690832501e-02  3.8493759261846908e-02 9.1665585969380958e-02 -1.1415421057428378e-01  2.0295694657433298e-02 4.5191105436207114e-02 -7.2122294900367229e-02  0.0000000000000000e+00 -2.0214752552588172e-02 -1.5011844342299696e-01  3.8970991092617687e-03 3.7876609089262540e-02 -1.0987613137286129e-01  4.9488029023968469e-03 6.1828375517337900e-02 -1.0597477747035687e-01  1.2643683441897501e-02 1.9541259245505503e-02 -1.4920281512912634e-01  2.8560926088133237e-02 5.2168452952232602e-02 -4.5672653375477983e-02  3.1250653936524569e-02 3.9467108510729938e-02 -5.4101409139775611e-02  4.9356037671793557e-02 1.2240058827571665e-01 -7.0527488685476203e-02  3.7481327279029121e-02 1.3532165190648593e-01 -3.4662861651497380e-02  9.2447596155806444e-02 3.7325950432435473e-02 9.7982901707894837e-02  4.0998806820480682e-02 6.1296233458317993e-02 -3.3905389668152285e-02  1.5927710496792546e-02 2.6852398416328010e-02 1.1021834050568820e-01  1.0483841283221742e-02 4.4979564376854374e-02 7.9748217030214050e-02  2.5464974596780144e-02 4.6166987031383347e-02 6.3739641744635339e-02  4.2648039533071780e-02 -5.4350546508396311e-02 1.5344186046546207e-02  3.4707081369540121e-02 -4.3948196114074516e-02 -4.6236489851091640e-02  1.0606742410263933e-01 -5.6999809416207699e-02 -9.1545062166055430e-02  4.3424989905888285e-02 -5.5267435670273167e-02 -2.3211543396441915e-02  0.0000000000000000e+00 2.1717274236275163e-03 -5.3015080495733412e-02  0.0000000000000000e+00 -1.0439334823556525e-02 -6.0447619484204088e-02  1.0637455233130047e-02 -6.6101041852238583e-03 -5.5929149051304639e-02  6.6313405939781743e-03 1.5817132826695460e-02 -1.0263553634473127e-01  8.4924247912308813e-03 -9.5290819773630797e-02 4.7693498459999255e-02  9.7083323771354531e-03 -6.6537974265890545e-02 7.0481924793123110e-02  3.5794713452061058e-03 -7.4252578089337870e-02 1.2974084766479629e-01  1.4659974254486468e-02 5.7414597397607098e-02 -7.6189200409247954e-02  6.5098689487653669e-03 5.7469286126110547e-02 -6.0526318001425813e-02  1.0579886459291296e-02 7.1283591382522535e-02 -1.3934546867604536e-01  1.4719704503362864e-02 -7.7991683121670943e-02 4.4182776919959629e-02  5.4265926623622640e-03 -1.0047424041996669e-01 2.7042109310544266e-02  3.2821404157757999e-03 -1.1985335744441335e-01 4.1928173970439395e-02  2.6741028461257744e-02 -1.4601200880080742e-01 -5.9483883389544849e-02  1.8623862452447786e-02 -7.6032177242922938e-02 9.4517496608828525e-03  2.1309419923998194e-02 -7.0514465743270138e-02 2.8199889022238293e-03  3.6646797250200612e-02 -1.5096894626551766e-01 4.4094143176937901e-03  1.9104214823895283e-02 -2.1370627551112378e-02 3.2695776175883894e-02  2.2552817748917216e-02 -1.3711587101854687e-03 3.4041895875385593e-02  2.6279354217333958e-02 2.8002870728083447e-02 6.6820103450946092e-02  2.1976951406242395e-02 -4.8242927178889547e-02 -4.7854011837604515e-02  1.1051155252263840e-02 -3.7087679325939711e-02 -8.6336821660147597e-02  1.8674600749483676e-02 -3.7659559744368146e-02 -4.7805406506815008e-02  2.8961930117106609e-02 -9.9350699019955038e-03 -2.1647678695669897e-02  3.9257829515914514e-02 -7.4785882053765920e-03 -8.4713190009197692e-03  7.8212787995580652e-02 1.9161033096490962e-02 -3.7271721212206614e-02  2.4354995878025750e-02 -1.6218265644315957e-02 1.5286370562691825e-03  2.8385307579175893e-02 5.6050052957226003e-02 3.5921310382499856e-02  2.5538336046594740e-02 5.9401002200059554e-02 3.7079331311055973e-02  7.4562898728678606e-02 3.5276385528892437e-02 1.1268218829189169e-01  1.5506342834827406e-02 1.6456774522837964e-02 4.4659831461510348e-02  1.9727019786146726e-02 8.7168569001816344e-03 5.2280697696022616e-02  2.3627697867231671e-02 1.4739219483744764e-02 7.0468319205777674e-02  0.0000000000000000e+00 4.0648294573929038e-02 -1.1174887436217144e-01  3.2903009879006101e-02 5.7530127288368441e-02 6.5987994123018262e-03  3.5427210694362735e-02 -3.1355257523964432e-02 -8.8157067214035142e-02  2.0292075628224441e-02 -2.1850714015923874e-02 -2.3716620878516181e-02  1.7309616774091274e-02 -1.5406778344399821e-02 -3.2521674596853151e-02  2.7301005632297089e-02 -8.2461147560414401e-03 6.2409257352243772e-02  2.2978445484871581e-02 -4.1065547049297442e-02 3.7277148205374110e-02  1.4139789282424502e-02 -4.0752920825101027e-02 2.9711269461022236e-02  1.8737167145571398e-02 -3.7513382281848265e-02 2.0243812743455318e-02  2.5276592558843201e-02 -1.4447655044296894e-02 6.4108027509789195e-02  1.8012897954229983e-02 -2.7296059638925996e-02 4.7268499061531632e-02  2.5251678664234417e-02 -8.7426925794502394e-03 6.9607878774112994e-02  1.9114694980442031e-02 -1.3321001753594441e-02 5.0621213172906021e-02  2.1751886913839925e-02 -9.8689146116307247e-03 4.7945098503922069e-02  4.4084649279840888e-03 2.9383837623509317e-02 -4.9866709138563718e-02  8.5679326306101426e-03 2.4868929603259701e-02 -5.6753423366073225e-02  2.3968895215410454e-02 -5.9526000246170704e-02 6.2921313349968144e-02  6.8712377819429033e-03 1.4676476184124315e-01 -1.4620473883188319e-03  5.2431630439680266e-03 9.9812379107428101e-02 2.7486486491139644e-02  4.5831616250738266e-03 9.7803197386402113e-02 6.5931294007748192e-02  1.5874217574357596e-02 1.4989814362182380e-01 -8.0480408488545190e-03  0.0000000000000000e+00 1.2193680085122884e-01 -2.2638739805337007e-02  0.0000000000000000e+00 4.0137637298097155e-02 -4.9298828262744190e-02  0.0000000000000000e+00 5.3119875513597530e-02 -4.9493430072547230e-02  4.3538647619203478e-03 9.1281685362829532e-02 -3.9720699190227873e-02  4.7795700569089813e-03 -3.5808138913377217e-02 5.4452635837547725e-02  1.0058791912176585e-02 -4.3988700441524732e-02 4.7280787662006121e-02  1.7002044190192335e-02 -6.3952335301461147e-02 6.3542909650326510e-02  0.0000000000000000e+00 -5.4677113549109202e-03 1.2545884077560512e-01  0.0000000000000000e+00 3.5506278809792000e-02 4.3159146998445891e-02  5.4356187386780594e-03 3.2836068432669403e-03 1.0549037645121521e-01  7.5713060661026510e-03 2.1720007917305682e-02 1.0120992439935779e-01  8.6560571331568397e-03 5.4584343249879257e-02 7.8041399394493088e-02  8.4751860008138464e-03 5.3894620809594895e-02 3.4084214027349985e-02  2.7198604685615265e-03 5.0406333322113861e-02 9.0628515099675663e-02  7.8893155148579888e-03 4.3047625207837899e-02 4.1489054092753740e-02  5.0542168924811705e-02 5.7247534011682184e-03 -5.1149879342703701e-02  4.1018343176476110e-02 3.5384905199929116e-02 -5.9357326021079480e-02  4.6372456695375965e-02 -4.8576523408718555e-03 -5.7470922167084930e-02  1.0876680664329741e-01 8.9478320568815148e-02 -4.0179642784860158e-02  8.2915071319235353e-02 -2.5113010695601960e-02 1.1099954679898730e-01  9.7938367475359726e-03 5.7227005392377758e-03 9.7262737101547120e-02  1.5337624215639344e-02 6.0558988776811248e-02 1.4207978677858338e-01  2.7122908845766728e-03 1.2268861409733492e-01 -2.5445745461523735e-02  8.7202567876456336e-03 9.7027901391167390e-02 -1.4046104635115545e-02  7.2455498076210894e-03 1.3666125777862700e-01 -5.4627870322390894e-02  1.1088184262882534e-02 1.1707936385134188e-01 -9.3565012229382322e-02  3.0211354624672296e-02 -1.3048745227293090e-01 8.2854411568511699e-02  4.4921862484978120e-02 -1.4009202130119347e-01 3.7885745017200968e-02  5.6993116853195684e-02 -1.1842073482394926e-01 7.0840737343001892e-02  1.2579567846304441e-02 1.0662101650969236e-01 3.2237851906944510e-02  2.1049199448248346e-02 6.4040743859571730e-02 -2.1527505687347404e-02  2.6932352997707673e-02 7.6345480936156188e-02 -3.6510257191497051e-03  3.5859537462845953e-02 1.4222911448603023e-01 2.9406014968265844e-02  1.5311419573279620e-02 -5.8641124515728553e-02 -2.0411233896523839e-02  8.8497164322443780e-03 -5.9552337461614140e-02 -1.0879133906157466e-02  1.5655692970345421e-02 -5.9941088409154651e-02 -7.4734667337791640e-03  9.7984012805792439e-03 -9.2214314334434028e-02 -2.9666045692253860e-02  2.9582192072616167e-02 1.5025345043800898e-02 -3.5292449574775051e-02  4.1289120381800430e-02 5.9294729109710120e-03 -6.0518070587348531e-02  3.3622395272857195e-02 1.4998468978658480e-02 -5.9840509441015398e-02  2.4262107712099964e-02 -3.7701415433687546e-02 -1.3095191614829988e-02  3.2996683009771127e-02 -5.9699243741806553e-02 1.2006092085037135e-02  0.0000000000000000e+00 1.6438188215881635e-02 5.5872063309497413e-02  9.6451057048885843e-03 1.8290526640783504e-02 6.6770363142292607e-02  7.0594724251971733e-03 2.6018447143340635e-02 5.3540825288041251e-02  1.1751533790095669e-02 -7.3845742480001988e-02 -6.2928642852740024e-02  1.5721807280834638e-02 1.0498596814894767e-01 1.0905483357794729e-01  3.0158230038162089e-02 7.1739477534907614e-02 1.2783635629115564e-01  5.2796340812827185e-03 -1.2297103584057069e-01 9.6007412342605139e-02  1.8057319339994066e-02 -1.4719106962955508e-01 6.0417208818719238e-02  5.3864386415503999e-03 -1.3676499631533348e-01 6.2447342388800085e-02  5.6865612272790139e-03 5.7914276500823321e-02 -3.9514297169996930e-02  1.2987257267315189e-02 2.2021371512155035e-02 -9.5997716375276113e-02  1.0080022920985371e-02 -1.4229323537671345e-02 -9.2643969724180222e-03  2.3994097437438317e-02 -2.5106095514117136e-03 -8.5524979854454050e-02  3.2922786087769627e-02 5.4821935142647339e-03 -1.5783091149644163e-01  3.2617065020902961e-02 4.4192387663995400e-02 -5.2687419522177321e-02  2.7998626894416564e-02 3.4311857558468981e-02 -9.3579158512865791e-03  1.7632146962672637e-02 -3.9718695909166199e-02 2.3530774010347363e-02  2.1941024672774530e-02 -4.6439980739489579e-02 1.7308908484710842e-02  1.7302458844687268e-02 -5.2572904245603937e-02 1.6572964932747427e-02  2.9321933105179068e-02 -5.3945777723540256e-02 3.2109903579978262e-02  1.4537944895900557e-02 6.0817154375832877e-02 4.2662007404223733e-02  7.1258621364989607e-03 -1.3361499458130997e-02 -8.6101704593604250e-02  8.0830973593724372e-03 -3.4798509421301971e-02 -5.1402162225688726e-02  7.2121635338146554e-03 -2.8758778502123085e-02 -5.5211802422022713e-02  1.0253682112036075e-02 -3.3645066881379242e-02 -4.5266256480423463e-02  2.3914230709661612e-02 3.5079875839875298e-02 1.6167091837421453e-02  2.2103874231889756e-02 3.6456460330805039e-02 6.2118321659885541e-03  1.1814798408656331e-02 7.8674130401046857e-02 -4.9134485411883630e-02  2.2430011078617799e-02 7.5595014941676045e-02 -2.2978078522918632e-03  5.7996068347449636e-02 1.3504552949586771e-01 2.0336574788385475e-02  1.3370875874060035e-02 -1.5621666296001238e-01 9.5992386064901159e-04  2.6645369486333302e-02 1.3397255642401476e-01 -6.6922830496779315e-02  2.1675629217403024e-02 -1.6937656720441042e-02 3.0725232342001908e-02  0.0000000000000000e+00 -6.8458065166202120e-02 -1.3838274511161239e-01  0.0000000000000000e+00 1.1543353686643441e-03 -1.1666416098962769e-01  1.9649043169242958e-03 -4.3218378869883329e-03 -9.4390726102212233e-02  6.0376828670512398e-03 -7.9976468408466575e-02 -1.3075986876967888e-01  5.1791221573277832e-03 -8.1907039866974896e-02 -6.9696160521670297e-02  0.0000000000000000e+00 8.2760439595381818e-02 -1.3034399703117605e-01  0.0000000000000000e+00 -6.7379566502111896e-02 -1.9587259853371706e-02  1.0490984580510830e-02 -6.6055696175004480e-02 -2.4397838413072338e-02  6.8011434812835251e-03 -5.8425040812070964e-02 -1.4547349657509926e-02  1.4180723629165642e-02 8.9359829501781327e-02 9.9243807808625621e-03  6.0258670631024329e-03 1.1737678458158743e-01 -3.3375182742357303e-03  4.9577326640484554e-03 4.2470049179992753e-02 -1.2429171617944858e-02  4.1451031334812406e-03 1.1300140656411847e-01 9.6487582348582165e-02  3.3218304549266766e-03 6.2992918238227530e-02 1.1008154254209716e-01  1.8112817295676917e-02 7.0036040884750347e-03 -5.7371094407006856e-02  2.1659069146005041e-02 9.4166018365588551e-04 -4.7632182849111346e-02  2.5649220850959487e-02 2.2803465786931206e-02 -7.5218347213172818e-02  1.6261600845608522e-02 -9.4922865531130197e-03 -5.2600030713507898e-02  0.0000000000000000e+00 7.2956489968246316e-02 -9.1765223884484437e-02  4.7955618245517995e-03 5.2808094597200629e-02 7.8800268678969804e-02  1.4712572753593839e-02 -5.4693686795686966e-02 3.7759811171423102e-02  1.6757224226427721e-02 -4.4563002940068784e-02 4.1536805972756580e-02  2.1905655785942540e-02 -5.4474448093087914e-02 3.0628408308323848e-02  1.7862786341131958e-02 -4.9855488877625101e-02 -1.6576710806275017e-02  1.6102203461145628e-02 -5.0375722019159803e-02 1.8206827696260468e-03  2.5546152118286491e-02 -6.3338665577271150e-02 -1.3691051510722728e-03  1.9797672693795967e-02 3.0751439777982757e-03 7.4997867093955256e-02  2.2688188389177313e-02 -3.5656272283163162e-02 1.4920493250851805e-01  1.9347334376991956e-02 -2.4858271367517303e-02 8.7990056169665529e-02  1.5339382785202756e-02 -4.8077889236317763e-02 7.1295419705657961e-02  3.5609824879905307e-02 -4.6787749371827628e-02 1.4119729112746179e-01  1.2523767432333636e-02 -2.0259829905811457e-02 5.7016050402576617e-02  8.1117535521221980e-03 -6.4789075219393047e-02 7.8845816343571466e-03  9.8267098655447777e-03 -6.0282576646476752e-02 1.8663094254894760e-02  2.7388957583172769e-02 6.7602464561964962e-02 -1.4424892410006092e-02  2.3787687838368276e-02 -8.5757527298563827e-03 7.2820817708390800e-02  3.9557662851835568e-02 -1.6135541519416298e-02 1.8131813292143674e-02  3.0233419906833411e-02 -3.2525521848213953e-03 -4.1227242892625006e-03  8.3475304738034994e-02 -5.0350223429426952e-02 -1.0214583911931369e-01  2.1718290949931218e-02 2.2938229880716195e-02 3.7177762947385576e-02  2.0251653236233996e-02 1.0544721508739611e-02 4.1781965281045136e-02  1.6796040104371791e-02 9.7733835563426616e-02 -3.3887472226523774e-02  4.8496126940577533e-02 -3.8793457068001455e-02 -2.6391117221419749e-02  2.7285324374905249e-02 5.3504028268409410e-04 -3.1079207427471642e-02  2.1662507435664953e-02 2.6648355038267517e-04 -2.6177466398208775e-02  4.1839206542993286e-02 -1.9458099867440227e-02 -4.9942120277955387e-02  3.4084177853343237e-02 -2.0177912211007721e-02 5.9578927518332575e-02  1.7313815510201176e-02 -2.9261418518242998e-02 -1.3073539462246254e-02  2.4845941184736049e-02 -2.5933455388707286e-02 -5.2025372601865842e-03  1.6971708596432003e-02 -2.0230942870985865e-02 -8.9343369597690188e-03  2.2863788404177580e-02 3.1605578241540873e-02 3.4365673500934327e-03  3.2604485816899197e-02 5.5910577405835542e-02 -3.1163821429896817e-02  2.9097364023558801e-02 2.7615511662073319e-02 3.6374983212439050e-03  3.8070456059337753e-02 5.5476295287110719e-02 2.7877568551190984e-02  0.0000000000000000e+00 1.0053441481481815e-01 -5.6587293913556061e-02  0.0000000000000000e+00 2.4451589469945585e-02 -5.9527142596235948e-02  0.0000000000000000e+00 3.3172411576527172e-02 -6.0959109448619722e-02  2.2040378376155297e-02 1.7832662856543540e-02 1.5102005526890172e-01  3.2442067085847411e-02 5.7401286573229250e-03 1.4655188120082249e-01  7.7193853266622108e-03 5.9467545831469605e-02 -1.4644204862030268e-02  0.0000000000000000e+00 4.5003560004072907e-02 -6.7008817282477231e-03  7.4456297187546474e-03 5.8208618560334942e-02 -5.3033737606423487e-03  1.0882507424519794e-02 -3.7466489024021957e-02 9.2380624570879172e-02  1.2502385637402769e-02 -3.7452433049879295e-03 5.9271314964006491e-02  7.9581179540451491e-02 4.0831144502095025e-02 -9.6697014476738119e-02  4.0101812954474035e-02 -4.2047949721864944e-02 -3.2431881707612319e-02  9.9090159840020689e-02 4.3866641038497071e-02 -8.7181849387471796e-02  1.9434768422287290e-02 4.3328059354570861e-02 -2.0704296786342766e-02  1.6266980413891984e-02 5.3026016484749618e-02 -8.2139201806661379e-03  1.9025686207137158e-02 4.4391704193020208e-02 -3.2796646196507968e-02  0.0000000000000000e+00 -1.0889533042669076e-01 5.5766172922200666e-02  7.1238993864159179e-03 4.7011544088254205e-02 -9.2908646013303925e-02  1.8717762487793145e-02 4.3790892784873296e-02 2.1410337881813974e-02  1.7468326526965419e-02 4.7393533216893574e-02 1.4121400175342837e-02  1.8675362391147071e-02 4.3307138361749667e-02 -4.8118250195981387e-03  3.4262014484718814e-02 5.7238542639428229e-02 -4.2133922393448014e-02  2.3368851850997841e-02 -1.2519075547696618e-02 -3.0499098375142801e-02  2.7234675188010701e-02 -8.5491312904326291e-03 -3.2559615726849907e-02  3.8715029307556686e-02 -4.7917656579736935e-02 -3.7668368599705911e-02  3.1286244396469848e-02 -6.9394897870876410e-02 2.7434816997258471e-02  8.1679022443050892e-02 -9.8705093424478654e-02 -5.1900667739713219e-02  6.3741929779363660e-02 -1.2238063678159580e-01 -4.6012592406982140e-02  2.7094257872019883e-02 4.6689657732668539e-02 -6.3200830719534898e-03  2.2901232508837341e-02 4.7122661846882123e-02 -1.4941074953208342e-02  2.0858791981867397e-03 3.2322006869060873e-03 1.2302280542548406e-01  1.0978269587801874e-02 7.1057039971987021e-02 5.1142220615816893e-02  2.2947108871896278e-02 1.3618117315483910e-01 5.8571208091712616e-02  9.32