<?xml version="1.0"?>
<VTKFile type="UnstructuredGrid"  version="0.1"  >
<UnstructuredGrid>
<Piece  NumberOfPoints="562" NumberOfCells="2167">
<Points>
<DataArray  type="Float64"  NumberOfComponents="3"  format="ascii">1.368988780486386 -0.3330614804626422 0.3812091262482924  1.457971735921389 -0.1022985678317614 0.3848351862271924  1.610427907917255 -0.2543337204802068 0.5283220094529932  1.517018421924314 -0.2975870322441377 0.2373535790744415  0.2896649584838891 -0.6565336317944969 0.3023309575633568  0.1476062501325057 -0.7596307241376263 0.3283146094026839  0.2103887490757956 -0.916837934661527 0.3815037813901131  0.2689768990101102 -0.8331508488021908 0.5326326663736717  0.9156822098122387 0.1728678968738864 0.3547279359267569  0.9955038627747099 0.1533306194452782 0.6087026577562188  0.7890673547573852 0.1092600253823605 0.4080960165386402  0.9145731457487908 0.02582743292350364 0.3935106194697764  1.555529446910997 -0.5403673213763167 0.3112575692626874  1.348103006996482 -0.462351674863219 0.1749673809371412  1.400987129938871 -0.69735066861689 0.1355899121124687  1.379596868832529 -0.6110590497219095 0.3769781373204191  0 -0.4990262892337586 -0.03118914320056031  0 -0.7290746446371459 0.09885523113658878  0 -0.717672921293292 -0.1906601281732726  0.1968984162950436 -0.7040029471989069 -0.07369861360184334  0 -0.04626762634821223 0.7372759069896635  0.1747349115361219 -0.1710428392996126 0.8075209349320995  0.1736439618246974 -0.1962945897661325 0.6287261280994423  0.1554956487469918 0.01915161770726388 0.8205218561784148  1.468118261285947 0.4388895086210086 0.1612631929613552  1.314649208445651 0.4683262063503433 0.04261620133015324  1.344984587319364 0.2109573947886681 -0.02958325590058262  1.313873754896346 0.1816089619152257 0.1471166805105471  0.8054134969450556 -0.533449770498696 -0.3926139635083312  1.023959850515393 -0.6045695018332022 -0.2205179401063885  1.05215698719499 -0.4565551953633328 -0.3958586963103667  0.8906623628738856 -0.3599786025326254 -0.1746980748537972  1.697689701537584 -0.1214082871572868 0.1246812640999428  1.488464593112258 -0.01630978270888243 0.02506236650239546  1.430421324362075 -0.1422530463333789 0.0006438225420573964  1.443375672974065 -0.09622504486493764 0.09622504486493764  0.7321510998862281 0.5624492232270197 0.3646846381716035  0.9239002426432321 0.3480246702761787 0.1811782883685  0.7490852309803118 0.4095827285081708 0.1339143819021366  0.9285858048943815 0.6335571890886311 0.2734941480292951  0.5604589232358378 -0.5698201261526246 -0.445758982164192  0.6089524280343109 -0.7218043571025563 -0.2041610728153083  0.6992001125134369 -0.7541456942161303 -0.5502812588103354  0.6274724868209266 0.4419785778654846 -0.5250198354585243  0.8756473641379455 0.3468289673768704 -0.5629197215258924  0.67802877664681 0.1808686458692327 -0.4046923641025996  0.5747192133026287 0.2418214339106003 -0.6661394725993455  0 -0.05589422902377143 -0.4966102514551253  0.2056253598613783 -0.1053038618535594 -0.6787933827793691  0.1556038154442484 0.06282062757538044 -0.6543309982444776  0.2724660772724383 0.01271359915602951 -0.4910330623919412  0.9865780311818615 0.5347283976096202 -0.3161606543928742  0.8204442367782485 0.5439521650280197 -0.46835255331516  0.8298883357700151 0.2747691377838339 -0.3083728461704535  0.6862435664967209 0.3812464258315117 -0.228747855498907  1.177314513331318 0.2155896063490769 0.2140622858922932  1.267656842582551 0.5005914574877968 0.2726043363799996  0.5728594645233351 0.3135209056411565 0.5449126792957779  0.5106867385450642 0.5036153923917321 0.4965240972019211  0.7698782860739618 0.3545773464498151 0.5878168661371025  1.257062485956698 -0.4638359972454 -0.342956295722521  1.188194666541641 -0.2467563208328611 -0.4932880249876783  1.208812547869822 -0.2451038235802088 -0.1523648506518715  1.405543018003129 -0.3155823461555193 -0.3144549970062264  0 -0.1321637113190494 -0.9912279018522304  0 -0.3021402933326705 -0.9528694918273042  0.2240193167333228 -0.2163747517189394 -0.968604487305365  0.1588608620926228 -0.2417277328284706 -0.7863213987186402  0.234290723282165 -0.4158101367292431 0.6068160964348613  0.336171426774712 -0.1961275532959101 0.7074104293225126  0.2157572393158068 -0.1977293037481581 0.4531390059122784  0.3402759051114709 0.1630546516396377 -0.7060477597699854  0.1632882031789302 0.196780254177258 -0.7862562160633888  0.231029003331308 0.1880338449615072 -0.4559977997563014  0.4728863797400071 -0.4933154510626057 0.5304985100819815  0.187854599331762 -0.6281900592232541 0.4987253373128265  0.1504625078742185 -0.4631455710889698 0.4631699097377626  0.5053019851007623 -0.4639188236666469 -0.07333804255252858  0.5526823878021767 -0.6967835074188571 0.215903246388164  0.6541336653852354 -0.7283429953560903 0.01682686734495902  0.6106765895285129 -0.435572044232048 0.1342135044502026  1.287900750276439 -0.4687881345125656 0.5967914885117886  1.473254424964647 -0.2014289120459823 0.6388974134251688  1.252201609832917 -0.1994817872140489 0.4924873900544187  0.6933873765617349 -0.4558378836670255 -0.5791550267835122  0.4866071064794875 -0.3834461891956515 -0.6005511129213282  0.6019697230687768 -0.6242818145703938 -0.7168889634012832  1.902820210771035 -0.06211515387208391 -0.2891430129447606  1.990339083299429 0.001064238785733084 -0.07652382797423923  1.724478368935762 -0.003788849933621816 -0.09935623650575776  1.954875178599839 -0.1249628659413422 -0.1581861500923273  0.9809979007020542 0.3576737082789349 0.535667969994543  1.241639713161487 0.2329691467692865 0.4709274800730408  1.03542332926206 0.2261833785676189 0.277619257236822  0.844968024044826 0.2915591042812161 0.85479271387891  0.9643254804467414 0.1075471943400586 0.8675308624173648  0.7528609021968682 0.08903098632416863 0.6868333670574929  0 -0.2092988896484911 -0.7083966808149078  1.404920008928814 0.3372989555460403 0.316767914436192  1.004219460199691 -0.2737979137568052 -0.4388250598374921  1.180873089276474 -0.4621305164745083 -0.6560168552866585  1.053305258761655 -0.3284868324358208 -0.7801286865200052  0.9712979390145692 -0.5110446369696806 0.4327235545709323  1.146293004560022 -0.6668284527145589 0.469882080380535  0.8963334118470608 -0.7310840957918627 0.5111265403121084  1.08206659020357 -0.7596894074461439 0.3528958016823166  0.8015085840467554 -0.3389768733860401 0.6685991538206634  0.925104953366791 -0.4648901631989753 0.7519021955945258  0.9984935472219151 -0.3065996581170283 0.5499211474208088  1.002288197777214 -0.2792071613298824 0.8153893475416765  1.215846416214816 -0.2524645935340363 0.7497327115816464  0.3024217308764339 0.4448958319181652 -0.8808605755070491  0.390139049844082 0.2930948946191007 -0.9351790364388617  0.7478274009820868 -0.4286314222864522 0.5038265581755443  0.2148561413125 0.491329266113953 -0.05528733303340339  0.2309383938052318 0.714092978138881 -0.2036113182046372  0.1975535218752708 0.6794042289099913 0.05518288617085648  0.3761572698058325 0.4709053903224183 -0.110071861452686  0 0.5090940372412278 -0.5349460340386839  0 0.5350603504932784 -0.8430433168771743  0 0.6738578937333988 -0.737915259701458  0.164109593248377 0.5761575785324918 -0.5890928788615022  0.2475029747273103 -0.4561046932550408 0.8800394901604827  0.3694925429576245 -0.5958501646405832 0.7791131291684588  0.4406799393760092 -0.3650559370457628 0.6810505410128649  0 0.4382264083498228 0.5937380410910144  0 0.7379152597014565 0.6738578937334002  0.1559289910125653 0.445628518864029 0.6984925326213108  0.2324810536730123 0.5213808955010337 0.5258435644279391  0.3555983309770547 0.656027019032849 0.3461651671211329  0.2458237569105728 0.8801511092168622 0.4561636277282752  0.1607954010233367 0.6785216544507058 0.4667873694261923  0.3826204414382912 0.7779301383454942 0.5949541429760784  1.52119605566691 0.1993844535737337 -0.3296462252473032  1.414311204796628 0.3898129177969151 -0.2057175795712648  1.35043553368913 0.31412477587753 -0.3988690910712985  1.281185985486842 0.1662780899176228 -0.1943758563769023  1.099075518775129 0.05947806630170303 0.3306302206363526  0.3679939443262019 0.3447617450768622 0.6523888179221276  0.4109508094888962 0.2773549013757027 0.3912230928899285  0.1373126243972625 0.5009352089527304 -0.4461785342859961  0.2664596187693265 0.6010832976391717 -0.4365657049749609  0.2179946197840175 0.4409807484602174 -0.2220003033063632  0.2617145123926756 0.3390154592910617 -0.3562749789872797  0.5824068775984312 -0.3170408450840759 0.3306350426033773  0.7199893230774794 -0.3705530655917506 0.2326552719422485  0.8358295522502738 -0.2669244509736641 0.3143056243869983  0.5587150980897445 0.6294294572528504 -0.01623015267248071  0.753690685110203 0.6532057608559532 -0.2369277096202369  0.7001301874755437 0.7550693058622343 -0.0524082716182921  0.6800782824703502 0.4417054734682031 -0.04452076045795449  0.4884308328800496 -0.9272425338669441 -0.2789182923255702  0.3906764030666174 -0.9712790424584049 -0.1262145572896986  0.6009334315497298 -0.9480231963115218 -0.09890104373476166  0.420071318585673 -0.7193185330298141 -0.02275610742170561  1.385707654592962 0.3976065221960926 -0.5961074699430042  1.219420193990472 0.4625196146528674 -0.3667717582939762  1.149364473949646 0.3130412125134983 -0.4806343490178561  1.195708172099174 -0.7474690340482983 -0.2799311705246049  1.219932523946796 -0.5119522484128803 -0.1401161375153302  0 0.4628593543202276 0.8855632312882982  0.3015827308425723 0.3699196515636318 0.916118113296736  0.2831250486531117 0.5320147666868361 0.8321945108773773  0.3825795555914422 -0.6690296309761865 -0.2952055242879837  0.4043090205097222 0.4000926521875504 0.2655017005394236  0.5978414449389082 0.3237928842626442 0.3209363851519929  0.2645148779899891 -0.338943586656435 0.3561994752880429  0.4219521826235639 -0.4004970037301178 0.2625370852546315  0.2094134450411068 -0.427547835839946 0.2479337980438358  0.1857857161792982 0.4082826524643675 -0.7114865320202091  0.4350093809141001 -0.08779074384838936 -0.7057378089671015  0.621
[...]
<PointData  Vectors="state-0"> 
<DataArray  type="Float64"  Name="state-0"  NumberOfComponents="3" format="ascii">2.7480189230759101e-02 3.1927661828113470e-02 9.6445082146679045e-02  3.1409891239415420e-02 1.0192764455335519e-02 8.0580568055074089e-02  2.6208166063956963e-02 -2.4101549438521426e-03 3.8241410974882137e-02  3.4220391395135531e-02 -2.2221694352714080e-02 8.3887236506475032e-02  1.2806584829563778e-02 -1.3286857919778386e-01 -4.3096289473475373e-02  5.4466179687095006e-03 -1.2014793426522710e-01 -8.2870760575836869e-03  1.0906572104824748e-02 -7.7840344896964675e-02 1.7773986748272821e-02  1.0937773331154022e-02 -7.0735602320167484e-02 3.3182911168935972e-02  7.3138883226888038e-02 -4.6051836331852565e-02 1.6513815641695501e-01  2.6683527943243190e-02 4.3723269939024985e-02 7.9254342672674491e-02  6.1694823247741663e-02 -7.8539602128100974e-02 1.6699866151554088e-01  7.5919266110305583e-02 -1.0723442892712272e-01 1.3554392643130780e-01  2.2754530685740890e-02 -2.2074231608100330e-02 2.4539791134840033e-02  2.9304816125207678e-02 -3.4990109528639145e-02 7.6590341283579166e-02  2.7119545752867014e-02 -3.8255164988754642e-02 1.6098435903937381e-02  2.3832685341121155e-02 -2.6642119858331072e-02 2.9268278135500467e-02  0.0000000000000000e+00 -1.6910690220404770e-01 -9.8253269852826355e-02  0.0000000000000000e+00 -1.2368468005249635e-01 -1.0719856185849276e-01  0.0000000000000000e+00 -7.1728711773105552e-02 -1.4247653470373611e-01  6.0175387975967762e-03 -1.0758306074455935e-01 -1.2031000375047300e-01  0.0000000000000000e+00 -1.3143344551663619e-01 9.1181438293461869e-02  9.0227671571653841e-03 -8.2597680010431454e-02 8.3588807710414409e-02  5.0708611840004662e-03 -1.6268843079773873e-01 7.7646307626739561e-02  1.0045605221792740e-02 -6.3451662799785827e-02 9.9851385712713486e-02  4.1644565628135156e-02 5.7830322767415447e-02 -5.1043936110783478e-02  3.8135716982615163e-02 9.5285240590525538e-02 -6.9229538368511378e-03  1.5671696227502444e-01 1.0022533186509973e-01 7.1048189321883087e-02  1.4767952821786409e-01 1.8452152167237963e-02 1.1680472046277848e-01  3.1296083179037600e-02 -6.2713239883053634e-02 -6.9154637313950676e-02  3.2095621937357398e-02 -7.3340007864417134e-02 1.3761348617148967e-02  3.9291213168332825e-02 -6.5654923822365666e-02 -4.4494665297272737e-02  8.1899905587037969e-02 -6.2580944947273620e-02 -1.6308733962820943e-01  1.0336615039557608e-01 -3.2243165768061612e-02 4.9478820889969771e-02  2.4621914785844629e-01 -1.7751024401618583e-02 4.8600392325752709e-02  2.3717170646826038e-01 -4.3357234110103449e-02 -7.2471744767004798e-02  2.1547847479871635e-01 -6.3717059103177473e-02 -5.2037029723963407e-03  1.8164715162289655e-02 6.3182081711739502e-02 8.9584188714606591e-02  7.4729531742910929e-02 6.6588902975269162e-02 1.6877917830082709e-01  4.9950961809878847e-02 9.8164768010455913e-02 1.6555251371308000e-01  3.0855212282330839e-02 8.0557954421559788e-02 -1.7760193170768851e-03  1.9866492103628602e-02 -6.0383347458797275e-02 -8.5362669162675084e-02  2.2640041117142060e-02 -7.9457157018510860e-02 -1.8402878795011981e-02  1.7892530103249746e-02 -4.3812232859127567e-02 -3.3750484837472935e-02  1.7529538923616167e-02 1.0188308212724118e-01 -4.2069254916398215e-02  3.0408424585000440e-02 5.2331154135844112e-02 -6.4135719579493808e-02  4.9421135230097911e-02 1.7351923913347350e-01 -9.0213977469010290e-02  2.4940752825000988e-02 7.9348493871170989e-02 -7.7490512379484733e-02  0.0000000000000000e+00 6.3764567453885534e-02 -1.7818569907371332e-01  6.1515986696725287e-03 1.0197622716648622e-01 -1.2881459582353691e-01  6.7705859324833310e-03 1.3975238597404391e-01 -1.0931714877225918e-01  1.7314367670519387e-02 1.0719129885665968e-01 -1.6383362998322548e-01  3.3043616955020901e-02 7.5750552557456677e-02 -4.2921997057739698e-02  3.6251243326613516e-02 5.3079021388256015e-02 -6.7589815368875844e-02  6.2634488641965871e-02 1.8792736302974986e-01 -2.4230965416443470e-02  4.7517155542362813e-02 1.8900291470102390e-01 3.1015341075511148e-02  1.1510733413602220e-01 -5.3271496546045615e-04 1.4202533862963848e-01  4.4078312008406777e-02 9.4347117776436187e-02 -4.2577618715573799e-02  1.9932605345895311e-02 -1.9113300471225451e-02 1.5093594104685976e-01  1.2405666128671984e-02 3.1929517457403973e-02 1.1462909868181471e-01  2.7153016637943495e-02 4.5220397877626980e-02 8.2572605211752609e-02  4.5329711371376140e-02 -7.5179669541943009e-02 2.3520093534066758e-02  4.1839581497593537e-02 -4.3969266291815148e-02 -6.1271719221565719e-02  1.3266439908667965e-01 -2.1782356346557213e-02 -1.3859441000345266e-01  4.9346724696923534e-02 -6.0886549545895390e-02 -3.1587697707277158e-02  0.0000000000000000e+00 3.5306754646394125e-03 -5.7790930032690778e-02  0.0000000000000000e+00 -1.2068718015176578e-02 -6.6880598377309516e-02  1.1645336946288273e-02 -8.7476724682672129e-03 -6.5304863244199290e-02  9.5015624505320386e-03 3.9235337433535807e-02 -1.2040570635592036e-01  1.1853705045274597e-02 -1.3773138208384797e-01 2.9601704015597054e-02  1.2632684708650817e-02 -1.0921214752912180e-01 7.1996548949233088e-02  5.2765675864685424e-03 -1.5997289002580775e-01 1.0968236092821194e-01  1.8187752547853195e-02 1.0385959532406466e-01 -7.9132124836668552e-02  9.1552737154822310e-03 8.4300141278700530e-02 -7.3542951208072249e-02  1.4088071136576473e-02 1.6057432534393720e-01 -1.2285792309396762e-01  1.9081383417007287e-02 -1.1007163064768773e-01 3.3675413249737843e-02  7.0785013402430760e-03 -1.2862491956994851e-01 1.1931649501087719e-02  5.9742068986228256e-03 -1.8038645519412194e-01 -5.0041908899109604e-03  3.4833135627222483e-02 -1.4421628579897899e-01 -1.4834457807130311e-01  2.1363379018009665e-02 -9.8915230482208377e-02 -4.2264392789817815e-03  2.2842189792725408e-02 -8.4792360117942597e-02 -1.8694109583310538e-03  4.7151899345184524e-02 -1.8559917047259580e-01 -7.2649277952135674e-02  2.1107938348586302e-02 -2.6721731563850472e-02 3.9478206269367322e-02  2.4860079179492223e-02 -1.2039499169652133e-03 3.9161075960545889e-02  2.5969191871229012e-02 2.8126884287327149e-02 8.7416025055722879e-02  2.7074932488634205e-02 -5.8575267777206952e-02 -6.1468530205983148e-02  1.3695294936675227e-02 -9.4090145762183199e-03 -1.2096846534118320e-01  2.1966522634744787e-02 -4.3732586005045718e-02 -5.7409832221206179e-02  3.6602827238975323e-02 -2.1506749811009883e-02 -2.8323069812522441e-02  4.8303873757428256e-02 -9.8036711923079663e-03 -1.6883305600132421e-02  1.0403563786930972e-01 3.7768856361705933e-02 -3.7349998898771136e-02  3.1002369794417669e-02 -2.8128544648250958e-02 3.4452888466235524e-03  2.9701396855829745e-02 7.0530842464701149e-02 5.0981410674329666e-02  2.7125783659392243e-02 6.6839708536798964e-02 5.3651784213477341e-02  9.3846364592570661e-02 -1.0946799253711429e-02 1.6121777171925400e-01  1.6939003041922862e-02 1.8027314196521392e-02 5.2551921722863187e-02  2.3324391096187766e-02 1.0658889121524356e-02 6.4077286908853531e-02  2.5211071841465926e-02 9.0037720015504717e-03 9.0446976710259058e-02  0.0000000000000000e+00 8.6580841353432192e-02 -1.3540759158707735e-01  3.9872665820213572e-02 7.5134269093496020e-02 1.4098484541644687e-02  4.6398167642113047e-02 1.0625063977642367e-02 -1.2617634943083045e-01  2.3291331773811399e-02 -2.5740233912600750e-02 -2.4811056648850367e-02  2.2491239519753431e-02 -1.8640570662686439e-02 -4.2132446657622183e-02  2.6124630592713211e-02 -1.2804792247327066e-02 8.8898354219966655e-02  2.5125333483132409e-02 -5.0208383064882310e-02 4.6107946560011971e-02  1.3795883257730452e-02 -5.2649105558395630e-02 3.6494292318093834e-02  1.9237547924322831e-02 -4.5846215819343630e-02 2.5804538587782533e-02  2.7200386361099404e-02 -1.0825754243659617e-02 8.9742243611864211e-02  2.2389645904183374e-02 -3.8174546628851891e-02 6.2754142271250382e-02  2.4852237473720892e-02 -1.8599149009608868e-02 8.3517731215061078e-02  2.1460412608631001e-02 -1.5937950849882861e-02 6.0476629352335179e-02  2.3385995294282123e-02 -1.1732400869963727e-02 5.4657457059772631e-02  4.4418682895244373e-03 3.6552073449089929e-02 -5.7643962299855668e-02  9.8377092136702395e-03 2.9399660412981931e-02 -6.3964612767555801e-02  2.7470822636252883e-02 -9.0683486981373462e-02 5.7005647080304998e-02  9.1645654611890830e-03 1.7349848590911779e-01 8.3598540627295811e-02  7.8180111340702442e-03 1.2465891444223040e-01 6.9855938948497218e-02  6.5730981197951897e-03 1.0233858065585627e-01 1.3514381360573025e-01  2.0242987950217322e-02 1.8511029337899185e-01 7.4915575420877886e-02  0.0000000000000000e+00 1.6830896130204279e-01 9.2966355636406005e-03  0.0000000000000000e+00 5.1242570461567376e-02 -6.3173048471117016e-02  0.0000000000000000e+00 6.1808374015759587e-02 -5.5316832053041450e-02  5.3297774381816871e-03 1.1752483593388993e-01 -2.7857124082420973e-02  4.0106112196959982e-03 -4.3996972969877438e-02 6.3746022682722198e-02  1.2309479520178624e-02 -5.2006331431013214e-02 5.5622687353346009e-02  1.9062708834547564e-02 -8.5466471902936825e-02 7.0051684454963084e-02  0.0000000000000000e+00 -4.2987492878464852e-02 1.6218486287958564e-01  0.0000000000000000e+00 4.0634039511381954e-02 5.2017600393299446e-02  6.7690032265862446e-03 -1.3974168521558489e-02 1.3151177590845045e-01  1.0215018312442871e-02 5.6057255418230211e-04 1.3854017441417985e-01  1.1030333770325522e-02 4.9506307501041374e-02 1.1558286350465950e-01  1.1216464654639883e-02 6.2123696429775152e-02 4.1118482982222003e-02  3.6299690644898287e-03 4.6870080563888659e-02 1.2062399834564651e-01  9.2244807630214656e-03 4.9140023686657874e-02 4.9395980186878893e-02  6.2434952932959871e-02 3.2808283979486753e-03 -5.9479895320536533e-02  4.9727935588249478e-02 5.1289878990023623e-02 -6.6424053313940093e-02  5.4824789698482770e-02 -9.2096397109156687e-03 -7.5394142791351038e-02  1.3395100086592721e-01 1.3255357156517134e-01 -5.1775281189436412e-03  1.0444791607831325e-01 -8.5301182145936030e-02 1.2711750432946342e-01  1.1775915623370298e-02 -1.8351433657438000e-02 1.2665916928496190e-01  2.0233153024259768e-02 -2.4473959637357438e-03 2.0338026382272062e-01  3.7497178080103276e-03 1.7835921334299168e-01 2.2514472213509745e-02  1.2565506801806440e-02 1.3259012277619966e-01 1.4245394695638538e-02  9.8039171566621560e-03 1.9118360961602837e-01 1.5974441263564863e-02  1.4601638744886710e-02 1.9260504442368193e-01 -4.4677506623469816e-02  3.9336331106824753e-02 -1.9975255200072081e-01 3.2296573658236856e-02  5.8499990000000696e-02 -1.9118732935454538e-01 -2.6107150143107070e-02  7.4054652851489114e-02 -1.8136877573901708e-01 2.7410713776700044e-02  1.6750313344954023e-02 1.2049912342418835e-01 9.5444706020771347e-02  2.5751248752737536e-02 8.7645003369815802e-02 -1.3038981377406538e-02  3.2168899123443145e-02 9.3566742110078802e-02 -1.1613023204195196e-03  4.4829337004167073e-02 1.6127252112622459e-01 1.1165856291933687e-01  1.7897935731228699e-02 -6.9295018853751278e-02 -2.4836114220726381e-02  1.0077338652111785e-02 -6.6376277605108364e-02 -1.4293139370567877e-02  1.7494792824017249e-02 -6.9036498306586910e-02 -9.1389135977122636e-03  1.3411361846302504e-02 -1.0590149126920428e-01 -6.9521718287612014e-02  3.3769528382402540e-02 1.7642316931887496e-02 -4.4384838040138472e-02  4.4381710676411328e-02 5.8324781919614557e-03 -8.5049852397445086e-02  4.0789690751427680e-02 2.5495289473718256e-02 -6.9555663821095376e-02  2.6488260210596921e-02 -4.2895049121908974e-02 -1.4412293792872852e-02  3.7824169220950367e-02 -6.7095548689666051e-02 -2.5283992545758094e-03  0.0000000000000000e+00 1.7847280656173355e-02 6.4941189779636727e-02  1.1544990273800730e-02 2.0382025918918648e-02 7.7388166964357588e-02  8.2761521757974341e-03 2.9193645283980042e-02 6.2506005890581431e-02  1.5060688637976992e-02 -7.0782877659513646e-02 -1.0149920204402751e-01  2.0665953209210032e-02 6.8094326715627956e-02 1.8853943319555266e-01  3.8341281453506633e-02 2.0783465713244569e-02 1.9533511096587067e-01  7.4743984419861102e-03 -1.9674296999115140e-01 4.6176702194018038e-02  2.3749321440406340e-02 -2.0647023524023966e-01 -5.4350397704620440e-03  7.1438888030742158e-03 -1.9316649519733223e-01 -4.2339254957452230e-03  6.6054503703419157e-03 8.1911110036348656e-02 -4.7196475145563965e-02  1.6967968320668058e-02 6.5921685701877800e-02 -1.1597280376357223e-01  1.8069849203406822e-02 -4.2586362954421648e-02 -2.9910667100712694e-02  3.0754172893282750e-02 1.5439452701871430e-02 -1.0384150496684513e-01  4.1909765669422429e-02 8.7831770765350259e-02 -1.8352018268652659e-01  3.6756850554794510e-02 6.3086334092917903e-02 -5.8947496296750772e-02  3.3891375689775481e-02 4.2523531569964870e-02 -1.3213439642265415e-02  1.9193882666728140e-02 -5.0465365233407340e-02 3.2059571486333434e-02  2.2931435748302486e-02 -5.4602021800108869e-02 1.9612164402299310e-02  1.7293778470521198e-02 -6.2038039991344059e-02 1.9110732271037566e-02  3.0488949807828857e-02 -6.8917478999057397e-02 5.4043211496511284e-02  1.6643931364000115e-02 7.3604883397029919e-02 5.5530086325574539e-02  9.9457731754165144e-03 -9.5317386967346835e-03 -1.0903322637355965e-01  9.7912539984058421e-03 -4.1245342588118968e-02 -6.3526427836190183e-02  1.0268785167863712e-02 -3.3323966054323376e-02 -6.6461557364472373e-02  1.2125886978776932e-02 -3.9027688208328359e-02 -5.4650336127582001e-02  3.0659592149641847e-02 4.6596292833719827e-02 2.2418110206826436e-02  2.5373278013822224e-02 4.4442273819811196e-02 6.1547229907161077e-03  1.4867156011968845e-02 1.2281253286979087e-01 -3.8149656390693822e-02  2.5811154911805769e-02 9.2371405485796670e-02 1.6858334929987319e-02  7.2724068711463696e-02 1.6001538488102549e-01 9.3292177919257785e-02  1.7369536549996966e-02 -1.8485319138347486e-01 -8.3285966098146091e-02  3.3823280848036465e-02 1.9828720630778252e-01 -5.5435582391402758e-03  2.8256994995516104e-02 -2.4904015721307720e-02 3.9409212907585714e-02  0.0000000000000000e+00 1.9806871585390713e-03 -1.9404080803757809e-01  0.0000000000000000e+00 4.1616639601469621e-02 -1.5695393242286698e-01  4.3857397634615601e-03 2.4018209552940612e-02 -1.2764129025270501e-01  8.3947543071603362e-03 -1.8146349929926957e-02 -1.9739830875040265e-01  7.7211973372919296e-03 -8.5820079769261912e-02 -9.8797277576043716e-02  0.0000000000000000e+00 1.6720795727466012e-01 -9.9055356949525789e-02  0.0000000000000000e+00 -7.4531232595317631e-02 -2.4116688231355439e-02  1.2437479333492613e-02 -7.5227315781309978e-02 -2.9543058762414670e-02  8.0590070242829714e-03 -6.2881975419505229e-02 -1.8235717064368658e-02  1.7962899328348943e-02 1.1156478434500167e-01 4.0566520861164981e-02  8.7032747314463258e-03 1.5681612203193032e-01 5.6063678857506870e-02  6.8211863868814174e-03 5.2892911958860825e-02 -1.8034806415640293e-02  5.9069807450389299e-03 7.8980746843822378e-02 1.7785642825417075e-01  5.3214358338798673e-03 3.0853342603455194e-02 1.7975443546453931e-01  2.1470680788730871e-02 8.5399469634622194e-03 -7.1874901346921663e-02  2.5456602055377919e-02 4.7838671728102225e-04 -5.6220971286516784e-02  3.0927641686301605e-02 5.1524904882310228e-02 -8.7953425335548341e-02  1.6678723701591697e-02 -1.0145977400597542e-02 -6.0442225627096932e-02  0.0000000000000000e+00 1.2908466534367294e-01 -9.6567943500275186e-02  6.4119515274378563e-03 5.5747706957556910e-02 1.1195826485860709e-01  1.5674545331543156e-02 -6.6054956718819974e-02 4.3779314859753546e-02  2.0101269916044901e-02 -5.4427486152881545e-02 4.8085845088987986e-02  2.3982728277051793e-02 -7.4067575475595476e-02 3.9297936517001704e-02  2.1635936067703691e-02 -6.0013253052515043e-02 -2.0652178160900137e-02  1.8018024355614577e-02 -6.5885393115592175e-02 2.1944768156515540e-03  2.9651965913475728e-02 -7.9864670274869445e-02 -1.2936434329354407e-02  2.2927396148918592e-02 -2.7224928894677958e-03 9.8032085735143812e-02  2.9529952049378635e-02 -1.2161100941780932e-01 1.6125339645473144e-01  2.2497438482734559e-02 -5.3001193365069747e-02 1.0214013780842439e-01  1.6329084226440960e-02 -8.3394993921044283e-02 7.4186302076376887e-02  4.5471408221928078e-02 -1.3030327636349273e-01 1.4902035463051358e-01  1.5771667882290917e-02 -2.5676468908291981e-02 6.7173359521031262e-02  1.1012476158679542e-02 -7.6405318982833939e-02 7.8357779072922591e-03  1.2085764817436739e-02 -7.2502194348960602e-02 2.1824485187390615e-02  3.0025960698003503e-02 8.4927964385811475e-02 -1.0192034315830987e-02  2.5340146000388721e-02 -2.4231330088215087e-02 8.4919268700436909e-02  5.0454842661161438e-02 -3.3754199032358795e-02 3.1264895957894841e-02  4.6039566624763627e-02 -1.1001090571489514e-02 -1.2762570522722659e-02  1.0452179404212285e-01 -4.8377912031519919e-03 -1.5227441584239143e-01  2.2084368473809114e-02 2.6752610759022213e-02 4.1385988178670341e-02  2.1322805025658587e-02 1.0753219320824672e-02 4.8601723010429705e-02  2.1865900961978556e-02 1.3911413893578087e-01 3.2155669232640498e-03  5.9412321624259558e-02 -6.2778441726398945e-02 -4.4168151634911806e-02  3.0142330636746741e-02 -1.7743698554680714e-03 -3.9669339789144414e-02  2.6881118172830693e-02 1.1987863862926301e-03 -3.5799124328008407e-02  4.9556704548603628e-02 -1.8286186562254118e-02 -6.4203834034020732e-02  3.6035653990647849e-02 -4.5837288457852593e-02 8.0050131440873112e-02  1.8174959701539282e-02 -3.2902235481319819e-02 -1.5884330984144660e-02  3.1231224635719236e-02 -3.5471250677822377e-02 -3.6793803887139507e-03  2.0128055493678725e-02 -2.5199509696075574e-02 -1.2150112056322297e-02  2.6294119277817354e-02 3.7738670715205563e-02 -6.2260664367033822e-04  4.5153710488092344e-02 6.9624050234447996e-02 -2.3764123461433279e-02  3.5871017055851530e-02 3.8615823908917012e-02 -2.3097643037967644e-03  5.3478212415750445e-02 5.7094844249700148e-02 4.5229475958834579e-02  0.0000000000000000e+00 1.5725034654260781e-01 -4.1810156595537849e-02  0.0000000000000000e+00 2.8914136800051459e-02 -6.6894662461059823e-02  0.0000000000000000e+00 4.0562809419985281e-02 -7.1484911424787870e-02  2.9065719003046754e-02 -5.7867324662859231e-02 1.9446587440278840e-01  4.1843096658815832e-02 -6.8898286828071961e-02 1.8561122767320845e-01  8.7102675702040878e-03 6.9104834934960710e-02 -1.6162219556336534e-02  0.0000000000000000e+00 5.5256688960627354e-02 -8.4460865642434924e-03  8.9589502493637625e-03 7.0604496967223235e-02 -4.4797048193447138e-03  1.3560079450156920e-02 -7.6256812530186180e-02 1.0890745462502817e-01  1.5670686600421230e-02 -5.1569326723151284e-03 7.0303051749806625e-02  1.0156162551775959e-01 1.0607728395080186e-01 -1.0155029545486591e-01  4.8158776434678176e-02 -6.3785348973255843e-02 -4.5083386411463318e-02  1.2440862123515270e-01 1.0164573932720383e-01 -8.9010066585297656e-02  2.4211617369187838e-02 5.1402497666915591e-02 -2.7092974250162844e-02  1.9249429589141720e-02 6.7328248455755954e-02 -9.1726063182871534e-03  2.5342223514596109e-02 5.5187323796836552e-02 -4.2034913617076466e-02  0.0000000000000000e+00 -1.6178540986254458e-01 4.1948505414276603e-02  9.9691637461717872e-03 7.3640757626110373e-02 -1.0609293951808664e-01  2.0474966261484668e-02 5.2704905758797133e-02 2.8024652929845233e-02  1.8873534400886002e-02 5.8176688007343789e-02 1.9029878052085322e-02  1.9552102332362431e-02 5.1384871876422641e-02 -5.7660983178309541e-03  3.6173319937306651e-02 7.3304390184142865e-02 -5.1562809795098745e-02  2.7459037444287234e-02 -1.6227338905664763e-02 -3.8721978877447834e-02  3.2214464645368937e-02 -1.3368567964011592e-02 -3.9567417086583317e-02  4.7976469417247140e-02 -6.1547222612443123e-02 -4.8461277598684314e-02  3.6056874952555489e-02 -8.8142373323451484e-02 1.1955437136937775e-02  1.0341381770341602e-01 -9.2290588806964335e-02 -1.1914843927596359e-01  8.2700059889561209e-02 -1.2622700660363939e-01 -1.2210345453957314e-01  3.0593567781508079e-02 5.6586985079628151e-02 -7.9136743924458266e-03  2.5989236693867306e-02 5.5306257678241315e-02 -1.8190787132855275e-02  3.4120009113186478e-03 -5.6958099088509261e-02 1.6624761571335958e-01  1.3992978981502915e-02 8.0052036011564645e-02 9.0834195344669355e-02  3.0420135292469157e-02 1.3866033796306976e-01 1.454219402299422